<?xml version="1.0" encoding="UTF-8"?>

<!-- generated on 2022-02-19 15:48:49 by Eclipse SUMO sumo Version 1.12.0
<configuration xmlns:xsi="http://www.w3.org/2001/XMLSchema-instance" xsi:noNamespaceSchemaLocation="http://sumo.dlr.de/xsd/sumoConfiguration.xsd">

    <input>
        <net-file value="./RL/dqn.net.xml"/>
        <route-files value="./RL/dqnrandom.rou.xml,./RL/agent.rou.xml"/>
        <additional-files value="./RL/dqn.det.xml"/>
    </input>

    <output>
        <emission-output value="./RL/dqn.emissionoutput.xml"/>
        <fcd-output value="./RL/dqn.fcdoutput.xml"/>
    </output>

    <time>
        <begin value="0"/>
        <end value="3600"/>
    </time>

    <processing>
        <max-depart-delay value="10000"/>
    </processing>

    <traci_server>
        <remote-port value="59739"/>
    </traci_server>

    <gui_only>
        <gui-settings-file value="./RL/rl1.settings.xml"/>
    </gui_only>

</configuration>
-->

<fcd-export xmlns:xsi="http://www.w3.org/2001/XMLSchema-instance" xsi:noNamespaceSchemaLocation="http://sumo.dlr.de/xsd/fcd_file.xsd">
    <timestep time="0.00">
        <vehicle id="veh0" x="4.80" y="-1.60" angle="90.00" type="agent" speed="0.00" pos="5.10" lane="E0_0" slope="0.00"/>
    </timestep>
    <timestep time="1.00">
        <vehicle id="veh0" x="6.23" y="-1.60" angle="90.00" type="agent" speed="1.53" pos="6.63" lane="E0_0" slope="0.00"/>
    </timestep>
    <timestep time="2.00">
        <vehicle id="veh0" x="8.75" y="-1.60" angle="90.00" type="agent" speed="2.68" pos="9.31" lane="E0_0" slope="0.00"/>
    </timestep>
    <timestep time="3.00">
        <vehicle id="veh0" x="12.72" y="-1.60" angle="90.00" type="agent" speed="4.22" pos="13.53" lane="E0_0" slope="0.00"/>
    </timestep>
    <timestep time="4.00">
        <vehicle id="veh0" x="17.76" y="-1.60" angle="90.00" type="agent" speed="5.36" pos="18.89" lane="E0_0" slope="0.00"/>
    </timestep>
    <timestep time="5.00">
        <vehicle id="veh0" x="23.82" y="-1.60" angle="90.00" type="agent" speed="6.44" pos="25.33" lane="E0_0" slope="0.00"/>
    </timestep>
    <timestep time="6.00">
        <vehicle id="veh0" x="31.22" y="-1.60" angle="90.00" type="agent" speed="7.87" pos="33.20" lane="E0_0" slope="0.00"/>
    </timestep>
    <timestep time="7.00">
        <vehicle id="veh0" x="40.25" y="-1.60" angle="90.00" type="agent" speed="9.61" pos="42.81" lane="E0_0" slope="0.00"/>
    </timestep>
    <timestep time="8.00">
        <vehicle id="veh0" x="50.93" y="-1.60" angle="90.00" type="agent" speed="11.36" pos="54.17" lane="E0_0" slope="0.00"/>
    </timestep>
    <timestep time="9.00">
        <vehicle id="veh0" x="63.18" y="-1.60" angle="90.00" type="agent" speed="13.03" pos="67.20" lane="E0_0" slope="0.00"/>
    </timestep>
    <timestep time="10.00">
        <vehicle id="veh0" x="77.16" y="-1.60" angle="90.00" type="agent" speed="14.87" pos="82.07" lane="E0_0" slope="0.00"/>
    </timestep>
    <timestep time="11.00">
        <vehicle id="veh0" x="86.77" y="-1.60" angle="90.00" type="agent" speed="10.22" pos="92.29" lane="E0_0" slope="0.00"/>
    </timestep>
    <timestep time="12.00">
        <vehicle id="veh0" x="92.53" y="-1.60" angle="90.00" type="agent" speed="6.13" pos="98.42" lane="E0_0" slope="0.00"/>
    </timestep>
    <timestep time="13.00">
        <vehicle id="veh0" x="120.85" y="8.63" angle="63.44" type="agent" speed="7.19" pos="5.60" lane="E2_0" slope="0.00"/>
    </timestep>
    <timestep time="14.00">
        <vehicle id="veh0" x="127.35" y="11.88" angle="63.44" type="agent" speed="8.22" pos="13.82" lane="E2_0" slope="0.00"/>
    </timestep>
    <timestep time="15.00">
        <vehicle id="veh0" x="135.09" y="15.76" angle="63.44" type="agent" speed="9.80" pos="23.62" lane="E2_0" slope="0.00"/>
    </timestep>
    <timestep time="16.00">
        <vehicle id="veh0" x="143.81" y="20.12" angle="63.44" type="agent" speed="11.03" pos="34.66" lane="E2_0" slope="0.00"/>
    </timestep>
    <timestep time="17.00">
        <vehicle id="veh0" x="153.66" y="25.04" angle="63.44" type="agent" speed="12.46" pos="47.12" lane="E2_0" slope="0.00"/>
    </timestep>
    <timestep time="18.00">
        <vehicle id="veh0" x="165.05" y="30.73" angle="63.44" type="agent" speed="14.41" pos="61.53" lane="E2_0" slope="0.00"/>
    </timestep>
    <timestep time="19.00">
        <vehicle id="veh0" x="176.40" y="36.41" angle="63.44" type="agent" speed="14.35" pos="75.88" lane="E2_0" slope="0.00"/>
    </timestep>
    <timestep time="20.00">
        <vehicle id="veh0" x="187.75" y="42.08" angle="63.44" type="agent" speed="14.36" pos="90.24" lane="E2_0" slope="0.00"/>
    </timestep>
    <timestep time="21.00">
        <vehicle id="veh0" x="199.17" y="47.79" angle="63.44" type="agent" speed="14.44" pos="104.68" lane="E2_0" slope="0.00"/>
    </timestep>
    <timestep time="22.00">
        <vehicle id="veh0" x="210.93" y="53.67" angle="63.44" type="agent" speed="14.89" pos="119.57" lane="E2_0" slope="0.00"/>
    </timestep>
    <timestep time="23.00">
        <vehicle id="veh0" x="222.40" y="59.41" angle="63.44" type="agent" speed="14.51" pos="134.07" lane="E2_0" slope="0.00"/>
    </timestep>
    <timestep time="24.00">
        <vehicle id="veh0" x="233.87" y="65.14" angle="63.44" type="agent" speed="14.52" pos="148.59" lane="E2_0" slope="0.00"/>
    </timestep>
    <timestep time="25.00">
        <vehicle id="veh0" x="244.96" y="70.69" angle="63.44" type="agent" speed="14.03" pos="162.62" lane="E2_0" slope="0.00"/>
    </timestep>
    <timestep time="26.00">
        <vehicle id="veh0" x="256.58" y="76.50" angle="63.44" type="agent" speed="14.70" pos="177.32" lane="E2_0" slope="0.00"/>
    </timestep>
    <timestep time="27.00">
        <vehicle id="veh0" x="267.73" y="82.07" angle="63.44" type="agent" speed="14.11" pos="191.43" lane="E2_0" slope="0.00"/>
    </timestep>
    <timestep time="28.00">
        <vehicle id="veh0" x="279.09" y="87.75" angle="63.44" type="agent" speed="14.37" pos="205.80" lane="E2_0" slope="0.00"/>
    </timestep>
    <timestep time="29.00">
        <vehicle id="veh0" x="287.21" y="91.81" angle="63.44" type="agent" speed="10.27" pos="216.07" lane="E2_0" slope="0.00"/>
    </timestep>
    <timestep time="30.00">
        <vehicle id="veh0" x="291.79" y="94.10" angle="63.44" type="agent" speed="5.80" pos="221.87" lane="E2_0" slope="0.00"/>
    </timestep>
    <timestep time="31.00">
        <vehicle id="veh0" x="316.65" y="98.40" angle="90.00" type="agent" speed="7.72" pos="5.98" lane="E7_0" slope="0.00"/>
    </timestep>
    <timestep time="32.00">
        <vehicle id="veh0" x="324.48" y="98.40" angle="90.00" type="agent" speed="9.52" pos="15.50" lane="E7_0" slope="0.00"/>
    </timestep>
    <timestep time="33.00">
        <vehicle id="veh0" x="332.28" y="98.40" angle="90.00" type="agent" speed="9.47" pos="24.97" lane="E7_0" slope="0.00"/>
    </timestep>
    <timestep time="34.00">
        <vehicle id="veh0" x="340.42" y="98.40" angle="90.00" type="agent" speed="9.90" pos="34.87" lane="E7_0" slope="0.00"/>
    </timestep>
    <timestep time="35.00">
        <vehicle id="veh0" x="348.24" y="98.40" angle="90.00" type="agent" speed="9.51" pos="44.38" lane="E7_0" slope="0.00"/>
    </timestep>
    <timestep time="36.00">
        <vehicle id="veh0" x="356.08" y="98.40" angle="90.00" type="agent" speed="9.53" pos="53.91" lane="E7_0" slope="0.00"/>
    </timestep>
    <timestep time="37.00">
        <vehicle id="veh0" x="363.97" y="98.40" angle="90.00" type="agent" speed="9.59" pos="63.49" lane="E7_0" slope="0.00"/>
    </timestep>
    <timestep time="38.00">
        <vehicle id="veh0" x="371.58" y="98.40" angle="90.00" type="agent" speed="9.25" pos="72.74" lane="E7_0" slope="0.00"/>
    </timestep>
    <timestep time="39.00">
        <vehicle id="veh0" x="379.21" y="98.40" angle="90.00" type="agent" speed="9.28" pos="82.02" lane="E7_0" slope="0.00"/>
    </timestep>
    <timestep time="40.00">
        <vehicle id="veh0" x="387.19" y="98.40" angle="90.00" type="agent" speed="9.69" pos="91.72" lane="E7_0" slope="0.00"/>
    </timestep>
    <timestep time="41.00">
        <vehicle id="veh0" x="395.40" y="98.40" angle="90.00" type="agent" speed="9.98" pos="101.70" lane="E7_0" slope="0.00"/>
    </timestep>
    <timestep time="42.00">
        <vehicle id="veh0" x="403.28" y="98.40" angle="90.00" type="agent" speed="9.57" pos="111.27" lane="E7_0" slope="0.00"/>
    </timestep>
    <timestep time="43.00">
        <vehicle id="veh0" x="411.33" y="98.40" angle="90.00" type="agent" speed="9.79" pos="121.05" lane="E7_0" slope="0.00"/>
    </timestep>
    <timestep time="44.00">
        <vehicle id="veh0" x="419.01" y="98.40" angle="90.00" type="agent" speed="9.34" pos="130.39" lane="E7_0" slope="0.00"/>
    </timestep>
    <timestep time="45.00">
        <vehicle id="veh0" x="426.70" y="98.40" angle="90.00" type="agent" speed="9.35" pos="139.74" lane="E7_0" slope="0.00"/>
    </timestep>
    <timestep time="46.00">
        <vehicle id="veh0" x="435.02" y="98.40" angle="90.00" type="agent" speed="10.10" pos="149.85" lane="E7_0" slope="0.00"/>
    </timestep>
    <timestep time="47.00">
        <vehicle id="veh0" x="442.89" y="98.40" angle="90.00" type="agent" speed="9.57" pos="159.41" lane="E7_0" slope="0.00"/>
    </timestep>
    <timestep time="48.00">
        <vehicle id="veh0" x="450.78" y="98.40" angle="90.00" type="agent" speed="9.59" pos="169.00" lane="E7_0" slope="0.00"/>
    </timestep>
    <timestep time="49.00">
        <vehicle id="veh0" x="458.36" y="98.40" angle="90.00" type="agent" speed="9.22" pos="178.22" lane="E7_0" slope="0.00"/>
    </timestep>
    <timestep time="50.00">
        <vehicle id="veh0" x="466.58" y="98.40" angle="90.00" type="agent" speed="9.99" pos="188.21" lane="E7_0" slope="0.00"/>
    </timestep>
    <timestep time="51.00">
        <vehicle id="veh0" x="473.30" y="98.40" angle="90.00" type="agent" speed="8.17" pos="196.38" lane="E7_0" slope="0.00"/>
    </timestep>
    <timestep time="52.00">
        <vehicle id="veh0" x="472.62" y="110.81" angle="288.44" type="agent" speed="10.02" pos="6.40" lane="-E6_0" slope="0.00"/>
    </timestep>
    <timestep time="53.00">
        <vehicle id="veh0" x="463.02" y="114.01" angle="288.44" type="agent" speed="11.43" pos="17.83" lane="-E6_0" slope="0.00"/>
    </timestep>
    <timestep time="54.00">
        <vehicle id="veh0" x="452.00" y="117.69" angle="288.44" type="agent" speed="13.11" pos="30.94" lane="-E6_0" slope="0.00"/>
    </timestep>
    <timestep time="55.00">
        <vehicle id="veh0" x="439.88" y="121.73" angle="288.44" type="agent" speed="14.42" pos="45.36" lane="-E6_0" slope="0.00"/>
    </timestep>
    <timestep time="56.00">
        <vehicle id="veh0" x="427.62" y="125.81" angle="288.44" type="agent" speed="14.59" pos="59.95" lane="-E6_0" slope="0.00"/>
    </timestep>
    <timestep time="57.00">
        <vehicle id="veh0" x="415.21" y="129.95" angle="288.44" type="agent" speed="14.76" pos="74.71" lane="-E6_0" slope="0.00"/>
    </timestep>
    <timestep time="58.00">
        <vehicle id="veh0" x="403.00" y="134.02" angle="288.44" type="agent" speed="14.53" pos="89.24" lane="-E6_0" slope="0.00"/>
    </timestep>
    <timestep time="59.00">
        <vehicle id="veh0" x="390.90" y="138.05" angle="288.44" type="agent" speed="14.40" pos="103.63" lane="-E6_0" slope="0.00"/>
    </timestep>
    <timestep time="60.00">
        <vehicle id="veh0" x="379.07" y="142.00" angle="288.44" type="agent" speed="14.07" pos="117.71" lane="-E6_0" slope="0.00"/>
    </timestep>
    <timestep time="61.00">
        <vehicle id="veh0" x="367.05" y="146.00" angle="288.44" type="agent" speed="14.30" pos="132.01" lane="-E6_0" slope="0.00"/>
    </timestep>
    <timestep time="62.00">
        <vehicle id="veh0" x="354.72" y="150.12" angle="288.44" type="agent" speed="14.68" pos="146.69" lane="-E6_0" slope="0.00"/>
    </timestep>
    <timestep time="63.00">
        <vehicle id="veh0" x="342.24" y="154.27" angle="288.44" type="agent" speed="14.84" pos="161.53" lane="-E6_0" slope="0.00"/>
    </timestep>
    <timestep time="64.00">
        <vehicle id="veh0" x="329.96" y="158.37" angle="288.44" type="agent" speed="14.62" pos="176.15" lane="-E6_0" slope="0.00"/>
    </timestep>
    <timestep time="65.00">
        <vehicle id="veh0" x="317.58" y="162.50" angle="288.44" type="agent" speed="14.73" pos="190.88" lane="-E6_0" slope="0.00"/>
    </timestep>
    <timestep time="66.00">
        <vehicle id="veh0" x="305.49" y="166.52" angle="288.44" type="agent" speed="14.37" pos="205.26" lane="-E6_0" slope="0.00"/>
    </timestep>
    <timestep time="67.00">
        <vehicle id="veh0" x="293.61" y="170.48" angle="288.44" type="agent" speed="14.14" pos="219.39" lane="-E6_0" slope="0.00"/>
    </timestep>
    <timestep time="68.00">
        <vehicle id="veh0" x="281.79" y="174.43" angle="288.44" type="agent" speed="14.07" pos="233.46" lane="-E6_0" slope="0.00"/>
    </timestep>
    <timestep time="69.00">
        <vehicle id="veh0" x="269.47" y="178.53" angle="288.44" type="agent" speed="14.65" pos="248.11" lane="-E6_0" slope="0.00"/>
    </timestep>
    <timestep time="70.00">
        <vehicle id="veh0" x="256.99" y="182.69" angle="288.44" type="agent" speed="14.86" pos="262.97" lane="-E6_0" slope="0.00"/>
    </timestep>
    <timestep time="71.00">
        <vehicle id="veh0" x="244.65" y="186.81" angle="288.44" type="agent" speed="14.68" pos="277.65" lane="-E6_0" slope="0.00"/>
    </timestep>
    <timestep time="72.00">
        <vehicle id="veh0" x="232.63" y="190.81" angle="288.44" type="agent" speed="14.30" pos="291.95" lane="-E6_0" slope="0.00"/>
    </timestep>
    <timestep time="73.00">
        <vehicle id="veh0" x="220.37" y="194.90" angle="288.44" type="agent" speed="14.59" pos="306.54" lane="-E6_0" slope="0.00"/>
    </timestep>
    <timestep time="74.00">
        <vehicle id="veh0" x="190.33" y="184.25" angle="206.56" type="agent" speed="14.90" pos="11.08" lane="-E1_0" slope="0.00"/>
    </timestep>
    <timestep time="75.00">
        <vehicle id="veh0" x="184.51" y="172.62" angle="206.56" type="agent" speed="14.46" pos="25.54" lane="-E1_0" slope="0.00"/>
    </timestep>
    <timestep time="76.00">
        <vehicle id="veh0" x="178.86" y="161.31" angle="206.56" type="agent" speed="14.05" pos="39.59" lane="-E1_0" slope="0.00"/>
    </timestep>
    <timestep time="77.00">
        <vehicle id="veh0" x="172.90" y="149.38" angle="206.56" type="agent" speed="14.82" pos="54.41" lane="-E1_0" slope="0.00"/>
    </timestep>
    <timestep time="78.00">
        <vehicle id="veh0" x="167.22" y="138.02" angle="206.56" type="agent" speed="14.11" pos="68.52" lane="-E1_0" slope="0.00"/>
    </timestep>
    <timestep time="79.00">
        <vehicle id="veh0" x="161.49" y="126.56" angle="206.56" type="agent" speed="14.24" pos="82.76" lane="-E1_0" slope="0.00"/>
    </timestep>
    <timestep time="80.00">
        <vehicle id="veh0" x="155.64" y="114.87" angle="206.56" type="agent" speed="14.53" pos="97.29" lane="-E1_0" slope="0.00"/>
    </timestep>
    <timestep time="81.00">
        <vehicle id="veh0" x="149.74" y="103.07" angle="206.56" type="agent" speed="14.66" pos="111.95" lane="-E1_0" slope="0.00"/>
    </timestep>
    <timestep time="82.00">
        <vehicle id="veh0" x="143.73" y="91.05" angle="206.56" type="agent" speed="14.93" pos="126.89" lane="-E1_0" slope="0.00"/>
    </timestep>
    <timestep time="83.00">
        <vehicle id="veh0" x="137.76" y="79.11" angle="206.56" type="agent" speed="14.84" pos="141.72" lane="-E1_0" slope="0.00"/>
    </timestep>
    <timestep time="84.00">
        <vehicle id="veh0" x="131.79" y="67.17" angle="206.56" type="agent" speed="14.84" pos="156.57" lane="-E1_0" slope="0.00"/>
    </timestep>
    <timestep time="85.00">
        <vehicle id="veh0" x="126.00" y="55.58" angle="206.56" type="agent" speed="14.40" pos="170.97" lane="-E1_0" slope="0.00"/>
    </timestep>
    <timestep time="86.00">
        <vehicle id="veh0" x="120.28" y="44.15" angle="206.56" type="agent" speed="14.20" pos="185.17" lane="-E1_0" slope="0.00"/>
    </timestep>
    <timestep time="87.00">
        <vehicle id="veh0" x="116.33" y="36.24" angle="206.56" type="agent" speed="9.82" pos="194.99" lane="-E1_0" slope="0.00"/>
    </timestep>
    <timestep time="88.00">
        <vehicle id="veh0" x="114.24" y="32.05" angle="206.56" type="agent" speed="5.21" pos="200.20" lane="-E1_0" slope="0.00"/>
    </timestep>
    <timestep time="89.00">
        <vehicle id="veh0" x="113.90" y="31.39" angle="206.56" type="agent" speed="0.82" pos="201.02" lane="-E1_0" slope="0.00"/>
    </timestep>
    <timestep time="90.00">
        <vehicle id="veh0" x="113.76" y="31.11" angle="206.56" type="agent" speed="0.35" pos="201.37" lane="-E1_0" slope="0.00"/>
    </timestep>
    <timestep time="91.00">
        <vehicle id="veh0" x="113.75" y="31.09" angle="206.56" type="agent" speed="0.02" pos="201.40" lane="-E1_0" slope="0.00"/>
    </timestep>
    <timestep time="92.00">
        <vehicle id="veh0" x="113.75" y="31.08" angle="206.56" type="agent" speed="0.02" pos="201.41" lane="-E1_0" slope="0.00"/>
    </timestep>
    <timestep time="93.00">
        <vehicle id="veh0" x="113.75" y="31.07" angle="206.56" type="agent" speed="0.00" pos="201.41" lane="-E1_0" slope="0.00"/>
    </timestep>
    <timestep time="94.00">
        <vehicle id="veh0" x="113.75" y="31.07" angle="206.56" type="agent" speed="0.00" pos="201.41" lane="-E1_0" slope="0.00"/>
    </timestep>
    <timestep time="95.00">
        <vehicle id="veh0" x="113.75" y="31.07" angle="206.56" type="agent" speed="0.00" pos="201.42" lane="-E1_0" slope="0.00"/>
    </timestep>
    <timestep time="96.00">
        <vehicle id="veh0" x="113.75" y="31.07" angle="206.56" type="agent" speed="0.00" pos="201.42" lane="-E1_0" slope="0.00"/>
    </timestep>
    <timestep time="97.00">
        <vehicle id="veh0" x="113.58" y="30.74" angle="206.56" type="agent" speed="0.42" pos="201.83" lane="-E1_0" slope="0.00"/>
    </timestep>
    <timestep time="98.00">
        <vehicle id="veh0" x="112.61" y="28.80" angle="206.56" type="agent" speed="2.41" pos="204.24" lane="-E1_0" slope="0.00"/>
    </timestep>
    <timestep time="99.00">
        <vehicle id="veh0" x="111.11" y="25.79" angle="206.56" type="agent" speed="3.73" pos="207.97" lane="-E1_0" slope="0.00"/>
    </timestep>
    <timestep time="100.00">
        <vehicle id="veh0" x="109.38" y="22.34" angle="206.56" type="agent" speed="4.29" pos="212.26" lane="-E1_0" slope="0.00"/>
    </timestep>
    <timestep time="101.00">
        <vehicle id="veh0" x="108.75" y="21.08" angle="206.56" type="agent" speed="1.57" pos="213.83" lane="-E1_0" slope="0.00"/>
    </timestep>
    <timestep time="102.00">
        <vehicle id="veh0" x="108.06" y="19.71" angle="206.56" type="agent" speed="1.70" pos="215.53" lane="-E1_0" slope="0.00"/>
    </timestep>
    <timestep time="103.00">
        <vehicle id="veh0" x="107.90" y="19.37" angle="206.56" type="agent" speed="0.42" pos="215.95" lane="-E1_0" slope="0.00"/>
    </timestep>
    <timestep time="104.00">
        <vehicle id="veh0" x="107.80" y="19.17" angle="206.56" type="agent" speed="0.25" pos="216.20" lane="-E1_0" slope="0.00"/>
    </timestep>
    <timestep time="105.00">
        <vehicle id="veh0" x="107.73" y="19.04" angle="206.56" type="agent" speed="0.17" pos="216.36" lane="-E1_0" slope="0.00"/>
    </timestep>
    <timestep time="106.00">
        <vehicle id="veh0" x="107.72" y="19.02" angle="206.56" type="agent" speed="0.02" pos="216.39" lane="-E1_0" slope="0.00"/>
    </timestep>
    <timestep time="107.00">
        <vehicle id="veh0" x="107.71" y="19.00" angle="206.56" type="agent" speed="0.02" pos="216.41" lane="-E1_0" slope="0.00"/>
    </timestep>
    <timestep time="108.00">
        <vehicle id="veh0" x="107.71" y="19.00" angle="206.56" type="agent" speed="0.01" pos="216.42" lane="-E1_0" slope="0.00"/>
    </timestep>
    <timestep time="109.00">
        <vehicle id="veh0" x="107.71" y="19.00" angle="206.56" type="agent" speed="0.00" pos="216.42" lane="-E1_0" slope="0.00"/>
    </timestep>
    <timestep time="110.00">
        <vehicle id="veh0" x="107.71" y="19.00" angle="206.56" type="agent" speed="0.00" pos="216.42" lane="-E1_0" slope="0.00"/>
    </timestep>
    <timestep time="111.00">
        <vehicle id="veh0" x="107.71" y="19.00" angle="206.56" type="agent" speed="0.00" pos="216.42" lane="-E1_0" slope="0.00"/>
    </timestep>
    <timestep time="112.00">
        <vehicle id="veh0" x="107.71" y="19.00" angle="206.56" type="agent" speed="0.00" pos="216.42" lane="-E1_0" slope="0.00"/>
    </timestep>
    <timestep time="113.00">
        <vehicle id="veh0" x="107.71" y="19.00" angle="206.56" type="agent" speed="0.00" pos="216.42" lane="-E1_0" slope="0.00"/>
    </timestep>
    <timestep time="114.00">
        <vehicle id="veh0" x="107.71" y="19.00" angle="206.56" type="agent" speed="0.00" pos="216.42" lane="-E1_0" slope="0.00"/>
    </timestep>
    <timestep time="115.00">
        <vehicle id="veh0" x="107.71" y="19.00" angle="206.56" type="agent" speed="0.00" pos="216.42" lane="-E1_0" slope="0.00"/>
    </timestep>
    <timestep time="116.00">
        <vehicle id="veh0" x="107.71" y="19.00" angle="206.56" type="agent" speed="0.00" pos="216.42" lane="-E1_0" slope="0.00"/>
    </timestep>
    <timestep time="117.00">
        <vehicle id="veh0" x="107.23" y="18.05" angle="206.56" type="agent" speed="1.18" pos="217.60" lane="-E1_0" slope="0.00"/>
    </timestep>
    <timestep time="118.00">
        <vehicle id="veh0" x="106.24" y="16.06" angle="206.56" type="agent" speed="2.47" pos="220.07" lane="-E1_0" slope="0.00"/>
    </timestep>
    <timestep time="119.00">
        <vehicle id="veh0" x="116.50" y="6.46" angle="136.38" type="agent" speed="4.05" pos="0.10" lane="E2_0" slope="0.00"/>
    </timestep>
    <timestep time="120.00">
        <vehicle id="veh0" x="120.05" y="8.23" angle="108.08" type="agent" speed="4.49" pos="4.59" lane="E2_0" slope="0.00"/>
    </timestep>
    <timestep time="121.00">
        <vehicle id="veh0" x="124.90" y="10.66" angle="63.44" type="agent" speed="6.14" pos="10.73" lane="E2_0" slope="0.00"/>
    </timestep>
    <timestep time="122.00">
        <vehicle id="veh0" x="130.71" y="13.57" angle="63.44" type="agent" speed="7.35" pos="18.08" lane="E2_0" slope="0.00"/>
    </timestep>
    <timestep time="123.00">
        <vehicle id="veh0" x="137.92" y="17.17" angle="63.44" type="agent" speed="9.12" pos="27.21" lane="E2_0" slope="0.00"/>
    </timestep>
    <timestep time="124.00">
        <vehicle id="veh0" x="146.49" y="21.45" angle="63.44" type="agent" speed="10.83" pos="38.04" lane="E2_0" slope="0.00"/>
    </timestep>
    <timestep time="125.00">
        <vehicle id="veh0" x="156.40" y="26.41" angle="63.44" type="agent" speed="12.54" pos="50.58" lane="E2_0" slope="0.00"/>
    </timestep>
    <timestep time="126.00">
        <vehicle id="veh0" x="166.34" y="31.38" angle="63.44" type="agent" speed="12.57" pos="63.15" lane="E2_0" slope="0.00"/>
    </timestep>
    <timestep time="127.00">
        <vehicle id="veh0" x="174.17" y="35.29" angle="63.44" type="agent" speed="9.90" pos="73.05" lane="E2_0" slope="0.00"/>
    </timestep>
    <timestep time="128.00">
        <vehicle id="veh0" x="179.87" y="38.14" angle="63.44" type="agent" speed="7.22" pos="80.27" lane="E2_0" slope="0.00"/>
    </timestep>
    <timestep time="129.00">
        <vehicle id="veh0" x="185.05" y="40.74" angle="63.44" type="agent" speed="6.56" pos="86.83" lane="E2_0" slope="0.00"/>
    </timestep>
    <timestep time="130.00">
        <vehicle id="veh0" x="188.93" y="42.67" angle="63.44" type="agent" speed="4.90" pos="91.73" lane="E2_0" slope="0.00"/>
    </timestep>
    <timestep time="131.00">
        <vehicle id="veh0" x="192.88" y="44.65" angle="63.44" type="agent" speed="4.99" pos="96.73" lane="E2_0" slope="0.00"/>
    </timestep>
    <timestep time="132.00">
        <vehicle id="veh0" x="196.48" y="46.45" angle="63.44" type="agent" speed="4.56" pos="101.29" lane="E2_0" slope="0.00"/>
    </timestep>
    <timestep time="133.00">
        <vehicle id="veh0" x="200.82" y="48.62" angle="63.44" type="agent" speed="5.49" pos="106.78" lane="E2_0" slope="0.00"/>
    </timestep>
    <timestep time="134.00">
        <vehicle id="veh0" x="204.56" y="50.49" angle="63.44" type="agent" speed="4.73" pos="111.51" lane="E2_0" slope="0.00"/>
    </timestep>
    <timestep time="135.00">
        <vehicle id="veh0" x="207.66" y="52.04" angle="63.44" type="agent" speed="3.92" pos="115.43" lane="E2_0" slope="0.00"/>
    </timestep>
    <timestep time="136.00">
        <vehicle id="veh0" x="211.16" y="53.79" angle="63.44" type="agent" speed="4.43" pos="119.86" lane="E2_0" slope="0.00"/>
    </timestep>
    <timestep time="137.00">
        <vehicle id="veh0" x="215.20" y="55.81" angle="63.44" type="agent" speed="5.11" pos="124.97" lane="E2_0" slope="0.00"/>
    </timestep>
    <timestep time="138.00">
        <vehicle id="veh0" x="219.54" y="57.98" angle="63.44" type="agent" speed="5.49" pos="130.46" lane="E2_0" slope="0.00"/>
    </timestep>
    <timestep time="139.00">
        <vehicle id="veh0" x="223.55" y="59.98" angle="63.44" type="agent" speed="5.07" pos="135.53" lane="E2_0" slope="0.00"/>
    </timestep>
    <timestep time="140.00">
        <vehicle id="veh0" x="227.33" y="61.87" angle="63.44" type="agent" speed="4.78" pos="140.31" lane="E2_0" slope="0.00"/>
    </timestep>
    <timestep time="141.00">
        <vehicle id="veh0" x="230.65" y="63.53" angle="63.44" type="agent" speed="4.20" pos="144.51" lane="E2_0" slope="0.00"/>
    </timestep>
    <timestep time="142.00">
        <vehicle id="veh0" x="234.75" y="65.58" angle="63.44" type="agent" speed="5.19" pos="149.70" lane="E2_0" slope="0.00"/>
    </timestep>
    <timestep time="143.00">
        <vehicle id="veh0" x="239.07" y="67.74" angle="63.44" type="agent" speed="5.46" pos="155.17" lane="E2_0" slope="0.00"/>
    </timestep>
    <timestep time="144.00">
        <vehicle id="veh0" x="242.70" y="69.56" angle="63.44" type="agent" speed="4.59" pos="159.76" lane="E2_0" slope="0.00"/>
    </timestep>
    <timestep time="145.00">
        <vehicle id="veh0" x="245.92" y="71.17" angle="63.44" type="agent" speed="4.08" pos="163.84" lane="E2_0" slope="0.00"/>
    </timestep>
    <timestep time="146.00">
        <vehicle id="veh0" x="249.31" y="72.86" angle="63.44" type="agent" speed="4.29" pos="168.12" lane="E2_0" slope="0.00"/>
    </timestep>
    <timestep time="147.00">
        <vehicle id="veh0" x="253.33" y="74.87" angle="63.44" type="agent" speed="5.09" pos="173.21" lane="E2_0" slope="0.00"/>
    </timestep>
    <timestep time="148.00">
        <vehicle id="veh0" x="257.43" y="76.92" angle="63.44" type="agent" speed="5.18" pos="178.40" lane="E2_0" slope="0.00"/>
    </timestep>
    <timestep time="149.00">
        <vehicle id="veh0" x="260.88" y="78.65" angle="63.44" type="agent" speed="4.37" pos="182.77" lane="E2_0" slope="0.00"/>
    </timestep>
    <timestep time="150.00">
        <vehicle id="veh0" x="264.75" y="80.58" angle="63.44" type="agent" speed="4.89" pos="187.66" lane="E2_0" slope="0.00"/>
    </timestep>
    <timestep time="151.00">
        <vehicle id="veh0" x="265.41" y="80.91" angle="63.44" type="agent" speed="0.83" pos="188.49" lane="E2_0" slope="0.00"/>
    </timestep>
    <timestep time="152.00">
        <vehicle id="veh0" x="266.29" y="81.35" angle="63.44" type="agent" speed="1.12" pos="189.60" lane="E2_0" slope="0.00"/>
    </timestep>
    <timestep time="153.00">
        <vehicle id="veh0" x="266.48" y="81.44" angle="63.44" type="agent" speed="0.24" pos="189.84" lane="E2_0" slope="0.00"/>
    </timestep>
    <timestep time="154.00">
        <vehicle id="veh0" x="266.85" y="81.63" angle="63.44" type="agent" speed="0.48" pos="190.32" lane="E2_0" slope="0.00"/>
    </timestep>
    <timestep time="155.00">
        <vehicle id="veh0" x="266.97" y="81.69" angle="63.44" type="agent" speed="0.15" pos="190.47" lane="E2_0" slope="0.00"/>
    </timestep>
    <timestep time="156.00">
        <vehicle id="veh0" x="266.99" y="81.70" angle="63.44" type="agent" speed="0.02" pos="190.49" lane="E2_0" slope="0.00"/>
    </timestep>
    <timestep time="157.00">
        <vehicle id="veh0" x="267.00" y="81.71" angle="63.44" type="agent" speed="0.01" pos="190.50" lane="E2_0" slope="0.00"/>
    </timestep>
    <timestep time="158.00">
        <vehicle id="veh0" x="267.00" y="81.71" angle="63.44" type="agent" speed="0.00" pos="190.50" lane="E2_0" slope="0.00"/>
    </timestep>
    <timestep time="159.00">
        <vehicle id="veh0" x="267.00" y="81.71" angle="63.44" type="agent" speed="0.00" pos="190.50" lane="E2_0" slope="0.00"/>
    </timestep>
    <timestep time="160.00">
        <vehicle id="veh0" x="267.00" y="81.71" angle="63.44" type="agent" speed="0.00" pos="190.50" lane="E2_0" slope="0.00"/>
    </timestep>
    <timestep time="161.00">
        <vehicle id="veh0" x="267.00" y="81.71" angle="63.44" type="agent" speed="0.00" pos="190.50" lane="E2_0" slope="0.00"/>
    </timestep>
    <timestep time="162.00">
        <vehicle id="veh0" x="267.00" y="81.71" angle="63.44" type="agent" speed="0.00" pos="190.50" lane="E2_0" slope="0.00"/>
    </timestep>
    <timestep time="163.00">
        <vehicle id="veh0" x="267.00" y="81.71" angle="63.44" type="agent" speed="0.00" pos="190.50" lane="E2_0" slope="0.00"/>
    </timestep>
    <timestep time="164.00">
        <vehicle id="veh0" x="267.00" y="81.71" angle="63.44" type="agent" speed="0.00" pos="190.50" lane="E2_0" slope="0.00"/>
    </timestep>
    <timestep time="165.00">
        <vehicle id="veh0" x="267.00" y="81.71" angle="63.44" type="agent" speed="0.00" pos="190.50" lane="E2_0" slope="0.00"/>
    </timestep>
    <timestep time="166.00">
        <vehicle id="veh0" x="267.00" y="81.71" angle="63.44" type="agent" speed="0.00" pos="190.50" lane="E2_0" slope="0.00"/>