<?xml version="1.0" encoding="UTF-8"?>

<!-- generated on 2022-02-19 14:28:57 by Eclipse SUMO sumo Version 1.12.0
<configuration xmlns:xsi="http://www.w3.org/2001/XMLSchema-instance" xsi:noNamespaceSchemaLocation="http://sumo.dlr.de/xsd/sumoConfiguration.xsd">

    <input>
        <net-file value="./RL/dqnm.net.xml"/>
        <route-files value="./RL/dqnrandom.rou.xml,./RL/agent.rou.xml"/>
        <additional-files value="./RL/dqn.det.xml"/>
    </input>

    <output>
        <emission-output value="./RL/dqn.emissionoutput.xml"/>
        <fcd-output value="./RL/dqn.fcdutput.xml"/>
        <vehroute-output value="./RL/dqn.vehroute.xml"/>
    </output>

    <time>
        <begin value="0"/>
        <end value="3600"/>
    </time>

    <processing>
        <max-depart-delay value="10000"/>
    </processing>

    <traci_server>
        <remote-port value="64305"/>
    </traci_server>

    <gui_only>
        <gui-settings-file value="./RL/rl1.settings.xml"/>
    </gui_only>

</configuration>
-->

<routes xmlns:xsi="http://www.w3.org/2001/XMLSchema-instance" xsi:noNamespaceSchemaLocation="http://sumo.dlr.de/xsd/routes_file.xsd">
    <vehicle id="2" type="normal_car" depart="2.00" arrival="42.00">
        <route edges="E8 E9"/>
    </vehicle>

    <vehicle id="12" type="normal_car" depart="12.00" arrival="73.00">
        <route edges="-E9 -E6"/>
    </vehicle>

    <vehicle id="30" type="normal_car" depart="31.00" arrival="85.00">
        <route edges="E0 E2"/>
    </vehicle>

    <vehicle id="50" type="normal_car" depart="50.00" arrival="97.00">
        <route edges="E6"/>
    </vehicle>

    <vehicle id="46" type="normal_car" depart="76.00" arrival="102.00">
        <route edges="E5"/>
    </vehicle>

    <vehicle id="28" type="normal_car" depart="28.00" arrival="104.00">
        <route edges="E0 E2 -E4"/>
    </vehicle>

    <vehicle id="76" type="normal_car" depart="80.00" arrival="104.00">
        <route edges="E4"/>
    </vehicle>

    <vehicle id="10" type="normal_car" depart="10.00" arrival="112.00">
        <route edges="-E4 E6"/>
    </vehicle>

    <vehicle id="13" type="normal_car" depart="13.00" arrival="117.00">
        <route edges="E0 E3 E8 E9"/>
    </vehicle>

    <vehicle id="16" type="normal_car" depart="16.00" arrival="119.00">
        <route edges="E2 E7"/>
    </vehicle>

    <vehicle id="1" type="normal_car" depart="4.00" arrival="125.00">
        <route edges="-E4 E6 E9"/>
    </vehicle>

    <vehicle id="20" type="normal_car" depart="20.00" arrival="127.00">
        <route edges="E2 E5 E8"/>
    </vehicle>

    <vehicle id="77" type="normal_car" depart="77.00" arrival="128.00">
        <route edges="E0 E2"/>
    </vehicle>

    <vehicle id="22" type="normal_car" depart="22.00" arrival="131.00">
        <route edges="-E5 -E2"/>
    </vehicle>

    <vehicle id="39" type="normal_car" depart="39.00" arrival="131.00">
        <route edges="E1 E6 E9"/>
    </vehicle>

    <vehicle id="6" type="normal_car" depart="6.00" arrival="132.00">
        <route edges="E0 E3 -E5"/>
    </vehicle>

    <vehicle id="47" type="truck" depart="47.00" arrival="132.00">
        <route edges="-E7"/>
    </vehicle>

    <vehicle id="51" type="normal_car" depart="53.00" arrival="136.00">
        <route edges="E6 -E8"/>
    </vehicle>

    <vehicle id="8" type="normal_car" depart="10.00" arrival="138.00">
        <route edges="E4 E5 E8 E9"/>
    </vehicle>

    <vehicle id="15" type="normal_car" depart="15.00" arrival="139.00">
        <route edges="E5 E8 -E7"/>
    </vehicle>

    <vehicle id="63" type="normal_car" depart="99.00" arrival="146.00">
        <route edges="E8 E9"/>
    </vehicle>

    <vehicle id="84" type="normal_car" depart="84.00" arrival="157.00">
        <route edges="E0 E1"/>
    </vehicle>

    <vehicle id="85" type="normal_car" depart="85.00" arrival="159.00">
        <route edges="-E2 -E0"/>
    </vehicle>

    <vehicle id="83" type="normal_car" depart="83.00" arrival="166.00">
        <route edges="-E9 -E7"/>
    </vehicle>

    <vehicle id="99" type="normal_car" depart="99.00" arrival="169.00">
        <route edges="-E4 E6"/>
    </vehicle>

    <vehicle id="44" type="normal_car" depart="44.00" arrival="170.00">
        <route edges="E4 E5 E8 -E7"/>
    </vehicle>

    <vehicle id="19" type="normal_car" depart="19.00" arrival="175.00">
        <route edges="E4 E7 -E8"/>
    </vehicle>

    <vehicle id="5" type="normal_car" depart="5.00" arrival="177.00">
        <route edges="E1 E4 E5 -E3"/>
    </vehicle>

    <vehicle id="4" type="normal_car" depart="4.00" arrival="180.00">
        <route edges="E2 -E4 -E1 -E0"/>
    </vehicle>

    <vehicle id="107" type="normal_car" depart="107.00" arrival="186.00">
        <route edges="-E9 -E6"/>
    </vehicle>

    <vehicle id="115" type="normal_car" depart="115.00" arrival="188.00">
        <route edges="-E9 -E6"/>
    </vehicle>

    <vehicle id="101" type="normal_car" depart="118.00" arrival="191.00">
        <route edges="-E3"/>
    </vehicle>

    <vehicle id="64" type="normal_car" depart="64.00" arrival="192.00">
        <route edges="E4 E7"/>
    </vehicle>

    <vehicle id="9" type="normal_car" depart="9.00" arrival="198.00">
        <route edges="E8 -E6 E4 E7"/>
    </vehicle>

    <vehicle id="123" type="normal_car" depart="131.00" arrival="215.00">
        <route edges="E1 E4"/>
    </vehicle>

    <vehicle id="3" type="normal_car" depart="3.00" arrival="218.00">
        <route edges="E3 E8 -E6 E4"/>
    </vehicle>

    <vehicle id="33" type="normal_car" depart="33.00" arrival="218.00">
        <route edges="-E1 E3 E8 -E6"/>
    </vehicle>

    <vehicle id="17" type="truck" depart="17.00" arrival="229.00">
        <route edges="E7 -E8 -E5"/>
    </vehicle>

    <vehicle id="137" type="normal_car" depart="137.00" arrival="239.00">
        <route edges="E4 E5 E8"/>
    </vehicle>

    <vehicle id="38" type="normal_car" depart="38.00" arrival="244.00">
        <route edges="E7 -E6 E4 E5"/>
    </vehicle>

    <vehicle id="66" type="truck" depart="66.00" arrival="244.00">
        <route edges="-E8 -E5 -E4"/>
    </vehicle>

    <vehicle id="48" type="normal_car" depart="54.00" arrival="248.00">
        <route edges="-E7 -E4 -E1"/>
    </vehicle>

    <vehicle id="7" type="normal_car" depart="7.00" arrival="252.00">
        <route edges="E4 -E2 E3"/>
    </vehicle>

    <vehicle id="65" type="normal_car" depart="70.00" arrival="253.00">
        <route edges="E4 E7 -E8 -E5"/>
    </vehicle>

    <vehicle id="21" type="normal_car" depart="23.00" arrival="254.00">
        <route edges="E4 -E2 E3"/>
    </vehicle>

    <vehicle id="32" type="normal_car" depart="33.00" arrival="255.00">
        <route edges="-E8 -E5 -E2"/>
    </vehicle>

    <vehicle id="213" type="normal_car" depart="221.00" arrival="255.00">
        <route edges="-E5"/>
    </vehicle>

    <vehicle id="130" type="normal_car" depart="130.00" arrival="259.00">
        <route edges="-E9 -E8 -E5 -E4"/>
    </vehicle>

    <vehicle id="177" type="normal_car" depart="196.00" arrival="264.00">
        <route edges="-E5 -E4"/>
    </vehicle>

    <vehicle id="69" type="truck" depart="79.00" arrival="266.00">
        <route edges="-E5 E7 E9"/>
    </vehicle>

    <vehicle id="91" type="truck" depart="141.00" arrival="268.00">
        <route edges="E3"/>
    </vehicle>

    <vehicle id="152" type="normal_car" depart="152.00" arrival="269.00">
        <route edges="-E3 E1"/>
    </vehicle>

    <vehicle id="93" type="normal_car" depart="145.00" arrival="270.00">
        <route edges="E3"/>
    </vehicle>

    <vehicle id="219" type="normal_car" depart="219.00" arrival="271.00">
        <route edges="E8"/>
    </vehicle>

    <vehicle id="165" type="normal_car" depart="215.00" arrival="274.00">
        <route edges="-E8"/>
    </vehicle>

    <vehicle id="114" type="normal_car" depart="114.00" arrival="283.00">
        <route edges="-E5 E7 -E8"/>
    </vehicle>

    <vehicle id="57" type="normal_car" depart="57.00" arrival="285.00">
        <route edges="-E1 E2 E7 -E8"/>
    </vehicle>

    <vehicle id="156" type="normal_car" depart="170.00" arrival="287.00">
        <route edges="E5 E8"/>
    </vehicle>

    <vehicle id="71" type="normal_car" depart="72.00" arrival="288.00">
        <route edges="E3 E8 -E6 E4"/>
    </vehicle>

    <vehicle id="80" type="normal_car" depart="85.00" arrival="297.00">
        <route edges="E7 -E8 -E3"/>
    </vehicle>

    <vehicle id="18" type="normal_car" depart="20.00" arrival="308.00">
        <route edges="E3 -E5 E7 -E8 -E3"/>
    </vehicle>

    <vehicle id="70" type="normal_car" depart="72.00" arrival="312.00">
        <route edges="E7 -E6 E4 E5"/>
    </vehicle>

    <vehicle id="215" type="normal_car" depart="218.00" arrival="314.00">
        <route edges="E4 E5"/>
    </vehicle>

    <vehicle id="144" type="truck" depart="165.00" arrival="318.00">
        <route edges="E7 -E8"/>
    </vehicle>

    <vehicle id="145" type="truck" depart="145.00" arrival="320.00">
        <route edges="E6 E9"/>
    </vehicle>

    <vehicle id="26" type="truck" depart="26.00" arrival="321.00">
        <route edges="-E5 E7 -E6"/>
    </vehicle>

    <vehicle id="179" type="normal_car" depart="180.00" arrival="322.00">
        <route edges="E4 E5 E8 E9"/>
    </vehicle>

    <vehicle id="53" type="truck" depart="53.00" arrival="327.00">
        <route edges="E1 E4 E7"/>
    </vehicle>

    <vehicle id="27" type="normal_car" depart="27.00" arrival="328.00">
        <route edges="E8 -E7 -E4 E6 -E8"/>
    </vehicle>

    <vehicle id="191" type="truck" depart="191.00" arrival="329.00">
        <route edges="E0 E1"/>
    </vehicle>

    <vehicle id="73" type="normal_car" depart="73.00" arrival="330.00">
        <route edges="-E2 E1 E6 -E8"/>
    </vehicle>

    <vehicle id="23" type="normal_car" depart="23.00" arrival="331.00">
        <route edges="-E2 E1 E4 E7"/>
    </vehicle>

    <vehicle id="164" type="truck" depart="210.00" arrival="331.00">
        <route edges="-E8 -E5"/>
    </vehicle>

    <vehicle id="49" type="normal_car" depart="49.00" arrival="332.00">
        <route edges="-E1 E3 E8 -E6"/>
    </vehicle>

    <vehicle id="235" type="normal_car" depart="235.00" arrival="332.00">
        <route edges="-E9 -E8 -E3"/>
    </vehicle>

    <vehicle id="36" type="normal_car" depart="36.00" arrival="334.00">
        <route edges="-E1 E2 E5 -E3 E1"/>
    </vehicle>

    <vehicle id="106" type="normal_car" depart="106.00" arrival="336.00">
        <route edges="E6 -E8 -E3 E1"/>
    </vehicle>

    <vehicle id="113" type="normal_car" depart="113.00" arrival="339.00">
        <route edges="-E4 E6 -E8 -E3 E1"/>
    </vehicle>

    <vehicle id="143" type="normal_car" depart="143.00" arrival="344.00">
        <route edges="-E5 E7 E9"/>
    </vehicle>

    <vehicle id="174" type="normal_car" depart="203.00" arrival="346.00">
        <route edges="E8 -E6"/>
    </vehicle>

    <vehicle id="29" type="normal_car" depart="30.00" arrival="350.00">
        <route edges="-E8 -E3 E1 E4"/>
    </vehicle>

    <vehicle id="43" type="normal_car" depart="43.00" arrival="352.00">
        <route edges="E8 -E6 -E1"/>
    </vehicle>

    <vehicle id="61" type="normal_car" depart="94.00" arrival="352.00">
        <route edges="-E3 E1 E4"/>
    </vehicle>

    <vehicle id="90" type="normal_car" depart="117.00" arrival="353.00">
        <route edges="E3 -E5 E7"/>
    </vehicle>

    <vehicle id="102" type="truck" depart="152.00" arrival="353.00">
        <route edges="E3 -E5"/>
    </vehicle>

    <vehicle id="153" type="normal_car" depart="155.00" arrival="356.00">
        <route edges="-E3 E1 E4"/>
    </vehicle>

    <vehicle id="75" type="normal_car" depart="75.00" arrival="357.00">
        <route edges="E3 -E5 -E4 -E1"/>
    </vehicle>

    <vehicle id="98" type="normal_car" depart="148.00" arrival="365.00">
        <route edges="E3 E8"/>
    </vehicle>

    <vehicle id="129" type="normal_car" depart="138.00" arrival="365.00">
        <route edges="E0 E1 E4"/>
    </vehicle>

    <vehicle id="25" type="truck" depart="27.00" arrival="366.00">
        <route edges="-E2 E3 -E5 -E4"/>
    </vehicle>

    <vehicle id="52" type="normal_car" depart="52.00" arrival="368.00">
        <route edges="-E2 E3 -E5 -E4"/>
    </vehicle>

    <vehicle id="184" type="normal_car" depart="253.00" arrival="370.00">
        <route edges="E1 E4"/>
    </vehicle>

    <vehicle id="258" type="normal_car" depart="258.00" arrival="371.00">
        <route edges="-E5 -E4"/>
    </vehicle>

    <vehicle id="78" type="normal_car" depart="83.00" arrival="374.00">
        <route edges="-E5 -E2 -E0"/>
    </vehicle>

    <vehicle id="163" type="normal_car" depart="163.00" arrival="374.00">
        <route edges="-E9 -E6 -E1"/>
    </vehicle>

    <vehicle id="126" type="normal_car" depart="134.00" arrival="375.00">
        <route edges="E0 E3 E8"/>
    </vehicle>

    <vehicle id="167" type="normal_car" depart="197.00" arrival="376.00">
        <route edges="E8 -E6 E4"/>
    </vehicle>

    <vehicle id="54" type="truck" depart="54.00" arrival="378.00">
        <route edges="-E5 -E2 E3"/>
    </vehicle>

    <vehicle id="214" type="normal_car" depart="214.00" arrival="379.00">
        <route edges="E0 E3 E8"/>
    </vehicle>

    <vehicle id="299" type="truck" depart="318.00" arrival="379.00">
        <route edges="-E5"/>
    </vehicle>

    <vehicle id="88" type="normal_car" depart="88.00" arrival="389.00">
        <route edges="E1 E6 -E8 -E5"/>
    </vehicle>

    <vehicle id="103" type="normal_car" depart="113.00" arrival="389.00">
        <route edges="-E8 -E5 -E4 E6"/>
    </vehicle>

    <vehicle id="89" type="normal_car" depart="108.00" arrival="391.00">
        <route edges="-E3 E1 E6"/>
    </vehicle>

    <vehicle id="40" type="normal_car" depart="40.00" arrival="392.00">
        <route edges="-E8 -E5 -E2 E3"/>
    </vehicle>

    <vehicle id="42" type="normal_car" depart="43.00" arrival="395.00">
        <route edges="-E8 -E5 -E2 E3"/>
    </vehicle>

    <vehicle id="148" type="normal_car" depart="157.00" arrival="402.00">
        <route edges="E4 E7 -E8"/>
    </vehicle>

    <vehicle id="361" type="normal_car" depart="361.00" arrival="405.00">
        <route edges="E4 E5"/>
    </vehicle>

    <vehicle id="346" type="normal_car" depart="353.00" arrival="409.00">
        <route edges="-E5"/>
    </vehicle>

    <vehicle id="276" type="truck" depart="279.00" arrival="417.00">
        <route edges="E0 E1"/>
    </vehicle>

    <vehicle id="314" type="normal_car" depart="314.00" arrival="419.00">
        <route edges="E0 E1"/>
    </vehicle>

    <vehicle id="45" type="normal_car" depart="72.00" arrival="422.00">
        <route edges="-E4 E6 -E7"/>
    </vehicle>

    <vehicle id="264" type="normal_car" depart="359.00" arrival="423.00">
        <route edges="E1"/>
    </vehicle>

    <vehicle id="387" type="normal_car" depart="387.00" arrival="429.00">
        <route edges="E4 E5"/>
    </vehicle>

    <vehicle id="72" type="normal_car" depart="72.00" arrival="430.00">
        <route edges="-E8 -E5 E7 -E6"/>
    </vehicle>

    <vehicle id="326" type="normal_car" depart="326.00" arrival="432.00">
        <route edges="-E9 -E6"/>
    </vehicle>

    <vehicle id="125" type="truck" depart="130.00" arrival="433.00">
        <route edges="E0 E1 E6"/>
    </vehicle>

    <vehicle id="134" type="normal_car" depart="188.00" arrival="434.00">
        <route edges="-E7"/>
    </vehicle>

    <vehicle id="307" type="normal_car" depart="307.00" arrival="436.00">
        <route edges="E6"/>
    </vehicle>

    <vehicle id="182" type="normal_car" depart="182.00" arrival="443.00">
        <route edges="-E9 -E7"/>
    </vehicle>

    <vehicle id="108" type="normal_car" depart="127.00" arrival="449.00">
        <route edges="-E7 -E2"/>
    </vehicle>

    <vehicle id="197" type="truck" depart="197.00" arrival="450.00">
        <route edges="E6 -E8 -E5"/>
    </vehicle>

    <vehicle id="79" type="normal_car" depart="79.00" arrival="453.00">
        <route edges="-E8 -E5 -E2"/>
    </vehicle>

    <vehicle id="187" type="normal_car" depart="221.00" arrival="453.00">
        <route edges="-E8 -E5 -E4 E6"/>
    </vehicle>

    <vehicle id="157" type="normal_car" depart="157.00" arrival="458.00">
        <route edges="-E5 -E2"/>
    </vehicle>

    <vehicle id="170" type="normal_car" depart="170.00" arrival="463.00">
        <route edges="-E2 -E0"/>
    </vehicle>

    <vehicle id="68" type="normal_car" depart="90.00" arrival="464.00">
        <route edges="E6 -E8 -E5 -E2"/>
    </vehicle>

    <vehicle id="251" type="normal_car" depart="325.00" arrival="465.00">
        <route edges="-E8 -E5 -E4"/>
    </vehicle>

    <vehicle id="92" type="normal_car" depart="92.00" arrival="472.00">
        <route edges="E0 E3 E8 -E7"/>
    </vehicle>

    <vehicle id="155" type="truck" depart="164.00" arrival="474.00">
        <route edges="E5 E8 -E6 E4"/>
    </vehicle>

    <vehicle id="256" type="normal_car" depart="256.00" arrival="474.00">
        <route edges="-E9 -E6 -E1"/>
    </vehicle>

    <vehicle id="351" type="normal_car" depart="352.00" arrival="476.00">
        <route edges="E0 E1"/>
    </vehicle>

    <vehicle id="247" type="normal_car" depart="247.00" arrival="480.00">
        <route edges="E0 E3 E8"/>
    </vehicle>

    <vehicle id="296" type="normal_car" depart="314.00" arrival="481.00">
        <route edges="-E5 -E4 -E1"/>
    </vehicle>

    <vehicle id="58" type="normal_car" depart="89.00" arrival="483.00">
        <route edges="E5 E8 -E7 -E4"/>
    </vehicle>

    <vehicle id="24" type="truck" depart="24.00" arrival="495.00">
        <route edges="-E3 E1 E4 -E2"/>
    </vehicle>

    <vehicle id="62" type="normal_car" depart="66.00" arrival="498.00">
        <route edges="-E1 E3 E8 -E6"/>
    </vehicle>

    <vehicle id="185" type="normal_car" depart="218.00" arrival="498.00">
        <route edges="-E8 -E5 -E2"/>
    </vehicle>

    <vehicle id="189" type="normal_car" depart="225.00" arrival="500.00">
        <route edges="-E8 -E5 -E2"/>
    </vehicle>

    <vehicle id="109" type="normal_car" depart="109.00" arrival="501.00">
        <route edges="-E5 -E2 E3"/>
    </vehicle>

    <vehicle id="120" type="normal_car" depart="126.00" arrival="503.00">
        <route edges="E0 E3 E8 -E6"/>
    </vehicle>

    <vehicle id="349" type="normal_car" depart="349.00" arrival="503.00">
        <route edges="E0 E3"/>
    </vehicle>

    <vehicle id="118" type="truck" depart="121.00" arrival="504.00">
        <route edges="E0 E1 E4 -E2"/>
    </vehicle>

    <vehicle id="208" type="normal_car" depart="208.00" arrival="505.00">
        <route edges="E0 E3 E8 -E6"/>
    </vehicle>

    <vehicle id="383" type="normal_car" depart="383.00" arrival="506.00">
        <route edges="E0 E3"/>
    </vehicle>

    <vehicle id="260" type="normal_car" depart="269.00" arrival="507.00">
        <route edges="E4 -E2"/>
    </vehicle>

    <vehicle id="55" type="normal_car" depart="85.00" arrival="508.00">
        <route edges="E5 -E3 E2"/>
    </vehicle>

    <vehicle id="104" type="truck" depart="196.00" arrival="508.00">
        <route edges="-E6 -E1 -E0"/>
    </vehicle>

    <vehicle id="270" type="normal_car" depart="308.00" arrival="509.00">
        <route edges="-E5 -E2"/>
    </vehicle>

    <vehicle id="31" type="normal_car" depart="32.00" arrival="511.00">
        <route edges="E1 E4 E5 -E3 E2"/>
    </vehicle>

    <vehicle id="132" type="normal_car" depart="239.00" arrival="511.00">
        <route edges="-E6 E4 E5 -E3"/>
    </vehicle>

    <vehicle id="227" type="normal_car" depart="258.00" arrival="512.00">
        <route edges="-E7"/>
    </vehicle>

    <vehicle id="14" type="normal_car" depart="14.00" arrival="515.00">
        <route edges="-E7 -E4 -E1 E2"/>
    </vehicle>

    <vehicle id="186" type="normal_car" depart="199.00" arrival="516.00">
        <route edges="-E5 E7 -E6"/>
    </vehicle>

    <vehicle id="195" type="truck" depart="207.00" arrival="519.00">
        <route edges="E8 -E7"/>
    </vehicle>

    <vehicle id="140" type="truck" depart="142.00" arrival="521.00">
        <route edges="E0 E2"/>
    </vehicle>

    <vehicle id="257" type="normal_car" depart="353.00" arrival="521.00">
        <route edges="-E8 -E5 -E4"/>
    </vehicle>

    <vehicle id="203" type="normal_car" depart="203.00" arrival="525.00">
        <route edges="E4 -E2 E1"/>
    </vehicle>

    <vehicle id="56" type="normal_car" depart="85.00" arrival="530.00">
        <route edges="-E3 E2 -E4"/>
    </vehicle>

    <vehicle id="0" type="truck" depart="0.00" arrival="532.00">
        <route edges="-E4 -E1 E2 E5"/>
    </vehicle>

    <vehicle id="311" type="normal_car" depart="313.00" arrival="532.00">
        <route edges="E6 -E8 -E3"/>
    </vehicle>

    <vehicle id="255" type="normal_car" depart="328.00" arrival="533.00">
        <route edges="-E8 -E3 E1"/>
    </vehicle>

    <vehicle id="35" type="normal_car" depart="38.00" arrival="535.00">
        <route edges="E5 E8 -E7 -E2 E3"/>
    </vehicle>

    <vehicle id="181" type="normal_car" depart="181.00" arrival="535.00">
        <route edges="-E2 E1 E4"/>
    </vehicle>

    <vehicle id="183" type="normal_car" depart="196.00" arrival="536.00">
        <route edges="-E3 E1 E4 -E2"/>
    </vehicle>

    <vehicle id="244" type="normal_car" depart="261.00" arrival="536.00">
        <route edges="-E7 -E4"/>
    </vehicle>

    <vehicle id="131" type="normal_car" depart="136.00" arrival="537.00">
        <route edges="-E5 -E2 E3"/>
    </vehicle>

    <vehicle id="60" type="normal_car" depart="87.00" arrival="541.00">
        <route edges="E6 -E8 -E5 -E2 E3"/>
    </vehicle>

    <vehicle id="284" type="normal_car" depart="287.00" arrival="541.00">
        <route edges="E6 -E8 -E3 -E0"/>
    </vehicle>

    <vehicle id="110" type="normal_car" depart="110.00" arrival="543.00">
        <route edges="E6 -E8 -E5 -E2 E3"/>
    </vehicle>

    <vehicle id="412" type="truck" depart="412.00" arrival="544.00">
        <route edges="E8 E9"/>
    </vehicle>

    <vehicle id="424" type="normal_car" depart="425.00" arrival="544.00">
        <route edges="-E3 -E0"/>
    </vehicle>

    <vehicle id="448" type="normal_car" depart="448.00" arrival="548.00">
        <route edges="E6"/>
    </vehicle>

    <vehicle id="212" type="normal_car" depart="212.00" arrival="554.00">
        <route edges="-E5 -E2 E3"/>
    </vehicle>

    <vehicle id="178" type="truck" depart="193.00" arrival="557.00">
        <route edges="-E1 E3 E8"/>
    </vehicle>

    <vehicle id="358" type="normal_car" depart="358.00" arrival="566.00">
        <route edges="-E9 -E8 -E3 E1"/>
    </vehicle>

    <vehicle id="188" type="truck" depart="188.00" arrival="567.00">
        <route edges="E4 E7 -E8"/>
    </vehicle>

    <vehicle id="396" type="normal_car" depart="396.00" arrival="567.00">
        <route edges="E0 E3 -E5"/>
    </vehicle>

    <vehicle id="292" type="normal_car" depart="292.00" arrival="571.00">
        <route edges="-E1 E3 E8"/>
    </vehicle>

    <vehicle id="172" type="normal_car" depart="200.00" arrival="573.00">
        <route edges="E8 -E7 E5"/>
    </vehicle>

    <vehicle id="226" type="truck" depart="234.00" arrival="573.00">
        <route edges="E8 -E6 -E1"/>
    </vehicle>

    <vehicle id="380" type="normal_car" depart="383.00" arrival="574.00">
        <route edges="-E1 E3 E8"/>
    </vehicle>

    <vehicle id="74" type="normal_car" depart="74.00" arrival="575.00">
        <route edges="-E7 -E2 E3 -E5"/>
    </vehicle>

    <vehicle id="231" type="normal_car" depart="231.00" arrival="577.00">
        <route edges="-E5 -E2 E3 E8"/>
    </vehicle>

    <vehicle id="136" type="normal_car" depart="245.00" arrival="581.00">
        <route edges="-E6 -E1 E3 -E5"/>
    </vehicle>

    <vehicle id="162" type="truck" depart="205.00" arrival="583.00">
        <route edges="-E8 -E5 E7"/>
    </vehicle>

    <vehicle id="352" type="normal_car" depart="353.00" arrival="583.00">
        <route edges="-E1 E3 -E5"/>
    </vehicle>

    <vehicle id="229" type="normal_car" depart="236.00" arrival="586.00">
        <route edges="-E8 -E5 E7"/>
    </vehicle>

    <vehicle id="434" type="normal_car" depart="434.00" arrival="586.00">
        <route edges="-E1"/>
    </vehicle>

    <vehicle id="160" type="normal_car" depart="160.00" arrival="588.00">
        <route edges="E1 E4 E7"/>
    </vehicle>

    <vehicle id="265" type="normal_car" depart="297.00" arrival="590.00">
        <route edges="-E5 E7"/>
    </vehicle>

    <vehicle id="86" type="normal_car" depart="102.00" arrival="596.00">
        <route edges="E8 -E7 -E4 E6"/>
    </vehicle>

    <vehicle id="194" type="normal_car" depart="202.00" arrival="599.00">
        <route edges="-E2 E3 -E5 -E4"/>
    </vehicle>

    <vehicle id="406" type="truck" depart="406.00" arrival="600.00">
        <route edges="E6 -E8"/>
    </vehicle>

    <vehicle id="11" type="normal_car" depart="13.00" arrival="602.00">
        <route edges="-E4 -E1 E3 E8 -E6 E4"/>
    </vehicle>

    <vehicle id="242" type="normal_car" depart="242.00" arrival="602.00">
        <route edges="E4 E7 -E8"/>
    </vehicle>

    <vehicle id="301" type="normal_car" depart="301.00" arrival="607.00">
        <route edges="E0 E3 E8 -E6"/>
    </vehicle>

    <vehicle id="342" type="normal_car" depart="342.00" arrival="608.00">
        <route edges="-E3 E1 E4"/>
    </vehicle>

    <vehicle id="527" type="normal_car" depart="533.00" arrival="610.00">
        <route edges="E4"/>
    </vehicle>

    <vehicle id="466" type="normal_car" depart="466.00" arrival="614.00">
        <route edges="-E1"/>
    </vehicle>

    <vehicle id="96" type="normal_car" depart="192.00" arrival="616.00">
        <route edges="-E6 E4 E7 -E8"/>
    </vehicle>

    <vehicle id="146" type="normal_car" depart="170.00" arrival="616.00">
        <route edges="E7 -E8 -E5 -E2 E3"/>
    </vehicle>

    <vehicle id="154" type="normal_car" depart="186.00" arrival="617.00">
        <route edges="E6 -E8 -E5 -E2 E3"/>
    </vehicle>

    <vehicle id="489" type="normal_car" depart="492.00" arrival="617.00">
        <route edges="E4 E5"/>
    </vehicle>

    <vehicle id="112" type="normal_car" depart="185.00" arrival="618.00">
        <route edges="-E7 -E2 -E0"/>
    </vehicle>

    <vehicle id="243" type="normal_car" depart="269.00" arrival="620.00">
        <route edges="E6 -E8 -E3 E1 E4"/>
    </vehicle>

    <vehicle id="485" type="normal_car" depart="564.00" arrival="623.00">
        <route edges="E8"/>
    </vehicle>

    <vehicle id="67" type="normal_car" depart="102.00" arrival="625.00">
        <route edges="-E3 E2 E5 E8"/>
    </vehicle>

    <vehicle id="393" type="truck" depart="395.00" arrival="625.00">
        <route edges="E8 -E6"/>
    </vehicle>

    <vehicle id="422" type="truck" depart="423.00" arrival="627.00">
        <route edges="E4 E7"/>
    </vehicle>

    <vehicle id="135" type="normal_car" depart="192.00" arrival="628.00">
        <route edges="-E8 -E5 E7 -E6"/>
    </vehicle>

    <vehicle id="180" type="normal_car" depart="190.00" arrival="628.00">
        <route edges="E6 -E8 -E5 -E2 E3"/>
    </vehicle>

    <vehicle id="364" type="normal_car" depart="364.00" arrival="628.00">
        <route edges="E4 E7 -E8"/>
    </vehicle>

    <vehicle id="111" type="normal_car" depart="171.00" arrival="631.00">
        <route edges="-E7 E5 E8 -E6"/>
    </vehicle>

    <vehicle id="315" type="normal_car" depart="315.00" arrival="631.00">
        <route edges="-E9 -E8 -E5 -E4 E6"/>
    </vehicle>

    <vehicle id="450" type="normal_car" depart="450.00" arrival="632.00">
        <route edges="E4 E7"/>
    </vehicle>

    <vehicle id="121" type="normal_car" depart="121.00" arrival="633.00">
        <route edges="-E3 E2 E5 E8"/>
    </vehicle>

    <vehicle id="168" type="normal_car" depart="191.00" arrival="633.00">
        <route edges="-E7 E5 E8 -E6"/>
    </vehicle>

    <vehicle id="196" type="normal_car" depart="197.00" arrival="635.00">
        <route edges="-E7 E5 E8 -E6"/>
    </vehicle>

    <vehicle id="425" type="normal_car" depart="425.00" arrival="636.00">
        <route edges="-E5 E7 -E8"/>
    </vehicle>

    <vehicle id="117" type="normal_car" depart="117.00" arrival="639.00">
        <route edges="E0 E2 E7 -E8"/>
    </vehicle>

    <vehicle id="122" type="normal_car" depart="129.00" arrival="640.00">
        <route edges="E2 E5 E8 -E6"/>
    </vehicle>

    <vehicle id="149" type="normal_car" depart="149.00" arrival="641.00">
        <route edges="E2 E7 -E8"/>
    </vehicle>

    <vehicle id="82" type="normal_car" depart="105.00" arrival="643.00">
        <route edges="-E3 E2 E5 E8 E9"/>
    </vehicle>

    <vehicle id="440" type="truck" depart="440.00" arrival="648.00">
        <route edges="-E1 -E0"/>
    </vehicle>

    <vehicle id="562" type="normal_car" depart="562.00" arrival="649.00">
        <route edges="E0 E1"/>
    </vehicle>

    <vehicle id="579" type="normal_car" depart="579.00" arrival="652.00">
        <route edges="-E9 -E8 -E5"/>
    </vehicle>

    <vehicle id="37" type="normal_car" depart="73.00" arrival="658.00">
        <route edges="E5 -E3 E2 E7 -E8"/>
    </vehicle>

    <vehicle id="435" type="normal_car" depart="435.00" arrival="663.00">
        <route edges="E0 E3 E8 E9"/>
    </vehicle>

    <vehicle id="105" type="normal_car" depart="126.00" arrival="665.00">
        <route edges="E2 E5 E8 -E6 E4"/>
    </vehicle>

    <vehicle id="192" type="normal_car" depart="192.00" arrival="672.00">
        <route edges="E5 E8 -E7"/>
    </vehicle>

    <vehicle id="224" type="normal_car" depart="447.00" arrival="672.00">
        <route edges="-E2 -E0"/>
    </vehicle>

    <vehicle id="457" type="normal_car" depart="457.00" arrival="674.00">
        <route edges="E4 -E2"/>
    </vehicle>

    <vehicle id="438" type="normal_car" depart="438.00" arrival="675.00">
        <route edges="E4 E7 -E8 -E5"/>
    </vehicle>
