<?xml version="1.0" encoding="UTF-8"?>

<!-- generated on 2022-02-18 15:30:26 by Eclipse SUMO sumo Version 1.12.0
<configuration xmlns:xsi="http://www.w3.org/2001/XMLSchema-instance" xsi:noNamespaceSchemaLocation="http://sumo.dlr.de/xsd/sumoConfiguration.xsd">

    <input>
        <net-file value="./RL/dqn.net.xml"/>
        <route-files value="./RL/dqnrandom.rou.xml,./RL/agent.rou.xml"/>
        <additional-files value="./RL/dqn.det.xml"/>
    </input>

    <output>
        <tripinfo-output value="./RL/dqn.tripinfo.xml"/>
        <vehroute-output value="./RL/dqn.vehroute.xml"/>
    </output>

    <time>
        <begin value="0"/>
        <end value="3600"/>
    </time>

    <processing>
        <max-depart-delay value="10000"/>
    </processing>

    <traci_server>
        <remote-port value="54222"/>
    </traci_server>

    <gui_only>
        <gui-settings-file value="./RL/rl1.settings.xml"/>
    </gui_only>

</configuration>
-->

<routes xmlns:xsi="http://www.w3.org/2001/XMLSchema-instance" xsi:noNamespaceSchemaLocation="http://sumo.dlr.de/xsd/routes_file.xsd">
</routes>
