<?xml version="1.0" encoding="UTF-8"?>

<!-- generated on 2022-02-18 15:30:26 by Eclipse SUMO sumo Version 1.12.0
<configuration xmlns:xsi="http://www.w3.org/2001/XMLSchema-instance" xsi:noNamespaceSchemaLocation="http://sumo.dlr.de/xsd/sumoConfiguration.xsd">

    <input>
        <net-file value="./RL/dqn.net.xml"/>
        <route-files value="./RL/dqnrandom.rou.xml,./RL/agent.rou.xml"/>
        <additional-files value="./RL/dqn.det.xml"/>
    </input>

    <output>
        <tripinfo-output value="./RL/dqn.tripinfo.xml"/>
        <vehroute-output value="./RL/dqn.vehroute.xml"/>
    </output>

    <time>
        <begin value="0"/>
        <end value="3600"/>
    </time>

    <processing>
        <max-depart-delay value="10000"/>
    </processing>

    <traci_server>
        <remote-port value="54222"/>
    </traci_server>

    <gui_only>
        <gui-settings-file value="./RL/rl1.settings.xml"/>
    </gui_only>

</configuration>
-->

<tripinfos xmlns:xsi="http://www.w3.org/2001/XMLSchema-instance" xsi:noNamespaceSchemaLocation="http://sumo.dlr.de/xsd/tripinfo_file.xsd">
    <tripinfo id="9" depart="18.00" departLane="E4_0" departPos="5.10" departSpeed="0.00" departDelay="0.00" arrival="42.00" arrivalLane="E5_0" arrivalPos="141.42" arrivalSpeed="14.34" duration="24.00" routeLength="269.69" waitingTime="0.00" waitingCount="0" stopTime="0.00" timeLoss="5.40" rerouteNo="0" devices="tripinfo_9" vType="normal_car" speedFactor="1.09" vaporized=""/>
    <tripinfo id="6" depart="12.00" departLane="E0_0" departPos="5.10" departSpeed="0.00" departDelay="0.00" arrival="43.00" arrivalLane="E1_0" arrivalPos="224.02" arrivalSpeed="12.46" duration="31.00" routeLength="318.92" waitingTime="0.00" waitingCount="0" stopTime="0.00" timeLoss="7.00" rerouteNo="0" devices="tripinfo_6" vType="normal_car" speedFactor="0.89" vaporized=""/>
    <tripinfo id="3" depart="6.00" departLane="-E6_0" departPos="5.10" departSpeed="0.00" departDelay="0.00" arrival="47.00" arrivalLane="-E1_0" arrivalPos="224.02" arrivalSpeed="14.85" duration="41.00" routeLength="529.28" waitingTime="0.00" waitingCount="0" stopTime="0.00" timeLoss="5.40" rerouteNo="0" devices="tripinfo_3" vType="normal_car" speedFactor="1.03" vaporized=""/>
    <tripinfo id="5" depart="13.00" departLane="E2_0" departPos="5.10" departSpeed="0.00" departDelay="3.00" arrival="67.00" arrivalLane="E6_0" arrivalPos="310.36" arrivalSpeed="14.30" duration="54.00" routeLength="662.24" waitingTime="0.00" waitingCount="0" stopTime="0.00" timeLoss="9.35" rerouteNo="0" devices="tripinfo_5" vType="normal_car" speedFactor="1.05" vaporized=""/>
    <tripinfo id="4" depart="8.00" departLane="-E7_0" departPos="5.10" departSpeed="0.00" departDelay="0.00" arrival="71.00" arrivalLane="E8_0" arrivalPos="141.42" arrivalSpeed="10.92" duration="63.00" routeLength="477.74" waitingTime="4.00" waitingCount="1" stopTime="0.00" timeLoss="16.46" rerouteNo="0" devices="tripinfo_4" vType="normal_car" speedFactor="0.83" vaporized=""/>
    <tripinfo id="1" depart="2.00" departLane="-E1_0" departPos="5.10" departSpeed="0.00" departDelay="0.00" arrival="73.00" arrivalLane="E9_0" arrivalPos="100.00" arrivalSpeed="14.05" duration="71.00" routeLength="760.34" waitingTime="0.00" waitingCount="0" stopTime="0.00" timeLoss="16.05" rerouteNo="0" devices="tripinfo_1" vType="normal_car" speedFactor="0.94" vaporized=""/>
    <tripinfo id="7" depart="17.00" departLane="E2_0" departPos="5.10" departSpeed="0.00" departDelay="3.00" arrival="77.00" arrivalLane="E9_0" arrivalPos="100.00" arrivalSpeed="13.36" duration="60.00" routeLength="601.35" waitingTime="2.00" waitingCount="1" stopTime="0.00" timeLoss="16.90" rerouteNo="0" devices="tripinfo_7" vType="normal_car" speedFactor="0.94" vaporized=""/>
    <tripinfo id="20" depart="46.00" departLane="E6_0" departPos="5.10" departSpeed="0.00" departDelay="6.00" arrival="83.00" arrivalLane="-E8_0" arrivalPos="141.42" arrivalSpeed="14.15" duration="37.00" routeLength="446.68" waitingTime="0.00" waitingCount="0" stopTime="0.00" timeLoss="6.95" rerouteNo="0" devices="tripinfo_20" vType="normal_car" speedFactor="1.01" vaporized=""/>
    <tripinfo id="2" depart="4.00" departLane="E6_0" departPos="5.10" departSpeed="0.00" departDelay="0.00" arrival="84.00" arrivalLane="E7_0" arrivalPos="200.00" arrivalSpeed="10.83" duration="80.00" routeLength="788.10" waitingTime="0.00" waitingCount="0" stopTime="0.00" timeLoss="21.51" rerouteNo="0" devices="tripinfo_2" vType="normal_car" speedFactor="1.08" vaporized=""/>
    <tripinfo id="12" depart="24.00" departLane="-E4_0" departPos="5.10" departSpeed="0.00" departDelay="0.00" arrival="84.00" arrivalLane="E5_0" arrivalPos="141.42" arrivalSpeed="14.81" duration="60.00" routeLength="717.32" waitingTime="0.00" waitingCount="0" stopTime="0.00" timeLoss="12.02" rerouteNo="0" devices="tripinfo_12" vType="normal_car" speedFactor="1.12" vaporized=""/>
    <tripinfo id="36" depart="72.00" departLane="-E5_0" departPos="5.10" departSpeed="0.00" departDelay="0.00" arrival="86.00" arrivalLane="-E5_0" arrivalPos="141.42" arrivalSpeed="14.23" duration="14.00" routeLength="136.32" waitingTime="0.00" waitingCount="0" stopTime="0.00" timeLoss="4.56" rerouteNo="0" devices="tripinfo_36" vType="normal_car" speedFactor="1.18" vaporized=""/>
    <tripinfo id="28" depart="56.00" departLane="E7_0" departPos="5.10" departSpeed="0.00" departDelay="0.00" arrival="93.00" arrivalLane="-E8_0" arrivalPos="141.42" arrivalSpeed="13.49" duration="37.00" routeLength="336.32" waitingTime="0.00" waitingCount="0" stopTime="0.00" timeLoss="5.55" rerouteNo="0" devices="tripinfo_28" vType="normal_car" speedFactor="0.93" vaporized=""/>
    <tripinfo id="8" depart="16.00" departLane="E6_0" departPos="5.10" departSpeed="0.00" departDelay="0.00" arrival="95.00" arrivalLane="E7_0" arrivalPos="200.00" arrivalSpeed="8.13" duration="79.00" routeLength="788.10" waitingTime="0.00" waitingCount="0" stopTime="0.00" timeLoss="9.39" rerouteNo="0" devices="tripinfo_8" vType="normal_car" speedFactor="0.86" vaporized=""/>
    <tripinfo id="11" depart="22.00" departLane="E6_0" departPos="5.10" departSpeed="0.00" departDelay="0.00" arrival="97.00" arrivalLane="E7_0" arrivalPos="200.00" arrivalSpeed="10.16" duration="75.00" routeLength="788.10" waitingTime="0.00" waitingCount="0" stopTime="0.00" timeLoss="15.96" rerouteNo="0" devices="tripinfo_11" vType="normal_car" speedFactor="1.05" vaporized=""/>
    <tripinfo id="13" depart="27.00" departLane="-E4_0" departPos="5.10" departSpeed="0.00" departDelay="1.00" arrival="104.00" arrivalLane="E7_0" arrivalPos="200.00" arrivalSpeed="9.61" duration="77.00" routeLength="775.90" waitingTime="0.00" waitingCount="0" stopTime="0.00" timeLoss="17.74" rerouteNo="0" devices="tripinfo_13" vType="normal_car" speedFactor="0.99" vaporized=""/>
    <tripinfo id="0" depart="0.00" departLane="-E8_0" departPos="8.10" departSpeed="0.00" departDelay="0.00" arrival="108.00" arrivalLane="-E2_0" arrivalPos="223.61" arrivalSpeed="4.94" duration="108.00" routeLength="498.35" waitingTime="0.00" waitingCount="0" stopTime="0.00" timeLoss="7.55" rerouteNo="0" devices="tripinfo_0" vType="truck" speedFactor="1.06" vaporized=""/>
    <tripinfo id="44" depart="88.00" departLane="-E8_0" departPos="5.10" departSpeed="0.00" departDelay="0.00" arrival="112.00" arrivalLane="-E5_0" arrivalPos="141.42" arrivalSpeed="14.01" duration="24.00" routeLength="277.74" waitingTime="0.00" waitingCount="0" stopTime="0.00" timeLoss="4.90" rerouteNo="0" devices="tripinfo_44" vType="normal_car" speedFactor="1.09" vaporized=""/>
    <tripinfo id="30" depart="67.00" departLane="-E2_0" departPos="5.10" departSpeed="0.00" departDelay="7.00" arrival="121.00" arrivalLane="-E0_0" arrivalPos="100.00" arrivalSpeed="14.75" duration="54.00" routeLength="318.51" waitingTime="0.00" waitingCount="0" stopTime="0.00" timeLoss="32.16" rerouteNo="0" devices="tripinfo_30" vType="normal_car" speedFactor="1.15" vaporized=""/>
    <tripinfo id="33" depart="66.00" departLane="E4_0" departPos="5.10" departSpeed="0.00" departDelay="0.00" arrival="126.00" arrivalLane="-E6_0" arrivalPos="310.36" arrivalSpeed="14.54" duration="60.00" routeLength="721.47" waitingTime="0.00" waitingCount="0" stopTime="0.00" timeLoss="11.04" rerouteNo="0" devices="tripinfo_33" vType="normal_car" speedFactor="0.99" vaporized=""/>
    <tripinfo id="23" depart="50.00" departLane="-E7_0" departPos="5.10" departSpeed="0.00" departDelay="4.00" arrival="130.00" arrivalLane="E8_0" arrivalPos="141.42" arrivalSpeed="11.80" duration="80.00" routeLength="477.74" waitingTime="17.00" waitingCount="1" stopTime="0.00" timeLoss="33.06" rerouteNo="0" devices="tripinfo_23" vType="normal_car" speedFactor="0.83" vaporized=""/>
    <tripinfo id="18" depart="36.00" departLane="-E7_0" departPos="5.10" departSpeed="0.00" departDelay="0.00" arrival="133.00" arrivalLane="E3_0" arrivalPos="300.00" arrivalSpeed="11.67" duration="97.00" routeLength="718.51" waitingTime="3.00" waitingCount="1" stopTime="0.00" timeLoss="45.22" rerouteNo="0" devices="tripinfo_18" vType="normal_car" speedFactor="1.16" vaporized=""/>
    <tripinfo id="21" depart="48.00" departLane="-E1_0" departPos="5.10" departSpeed="0.00" departDelay="6.00" arrival="136.00" arrivalLane="E6_0" arrivalPos="310.36" arrivalSpeed="13.83" duration="88.00" routeLength="886.26" waitingTime="3.00" waitingCount="2" stopTime="0.00" timeLoss="27.08" rerouteNo="0" devices="tripinfo_21" vType="normal_car" speedFactor="0.98" vaporized=""/>
    <tripinfo id="42" depart="100.00" departLane="-E2_0" departPos="5.10" departSpeed="0.00" departDelay="16.00" arrival="138.00" arrivalLane="E1_0" arrivalPos="224.02" arrivalSpeed="14.83" duration="38.00" routeLength="442.53" waitingTime="0.00" waitingCount="0" stopTime="0.00" timeLoss="7.54" rerouteNo="0" devices="tripinfo_42" vType="normal_car" speedFactor="1.04" vaporized=""/>
    <tripinfo id="16" depart="33.00" departLane="-E1_0" departPos="5.10" departSpeed="0.00" departDelay="1.00" arrival="143.00" arrivalLane="E9_0" arrivalPos="100.00" arrivalSpeed="13.42" duration="110.00" routeLength="760.34" waitingTime="12.00" waitingCount="1" stopTime="0.00" timeLoss="55.58" rerouteNo="0" devices="tripinfo_16" vType="normal_car" speedFactor="0.94" vaporized=""/>
    <tripinfo id="46" depart="92.00" departLane="E4_0" departPos="5.10" departSpeed="0.00" departDelay="0.00" arrival="143.00" arrivalLane="E1_0" arrivalPos="224.02" arrivalSpeed="12.94" duration="51.00" routeLength="575.90" waitingTime="0.00" waitingCount="0" stopTime="0.00" timeLoss="7.57" rerouteNo="0" devices="tripinfo_46" vType="normal_car" speedFactor="0.90" vaporized=""/>
    <tripinfo id="32" depart="64.00" departLane="-E5_0" departPos="5.10" departSpeed="0.00" departDelay="0.00" arrival="145.00" arrivalLane="-E7_0" arrivalPos="200.00" arrivalSpeed="11.03" duration="81.00" routeLength="780.05" waitingTime="0.00" waitingCount="0" stopTime="0.00" timeLoss="24.37" rerouteNo="0" devices="tripinfo_32" vType="normal_car" speedFactor="1.17" vaporized=""/>
    <tripinfo id="57" depart="114.00" departLane="E2_0" departPos="5.10" departSpeed="0.00" departDelay="0.00" arrival="145.00" arrivalLane="E5_0" arrivalPos="141.42" arrivalSpeed="14.38" duration="31.00" routeLength="359.93" waitingTime="0.00" waitingCount="0" stopTime="0.00" timeLoss="6.97" rerouteNo="0" devices="tripinfo_57" vType="normal_car" speedFactor="1.02" vaporized=""/>
    <tripinfo id="25" depart="50.00" departLane="E6_0" departPos="8.10" departSpeed="0.00" departDelay="0.00" arrival="147.00" arrivalLane="-E8_0" arrivalPos="141.42" arrivalSpeed="4.64" duration="97.00" routeLength="443.68" waitingTime="0.00" waitingCount="0" stopTime="0.00" timeLoss="7.46" rerouteNo="0" devices="tripinfo_25" vType="truck" speedFactor="0.92" vaporized=""/>
    <tripinfo id="29" depart="58.00" departLane="E6_0" departPos="5.10" departSpeed="0.00" departDelay="0.00" arrival="149.00" arrivalLane="-E8_0" arrivalPos="141.42" arrivalSpeed="7.40" duration="91.00" routeLength="446.68" waitingTime="0.00" waitingCount="0" stopTime="0.00" timeLoss="61.17" rerouteNo="0" devices="tripinfo_29" vType="normal_car" speedFactor="1.18" vaporized=""/>
    <tripinfo id="10" depart="20.00" departLane="-E7_0" departPos="5.10" departSpeed="0.00" departDelay="0.00" arrival="151.00" arrivalLane="-E5_0" arrivalPos="141.42" arrivalSpeed="7.57" duration="131.00" routeLength="859.93" waitingTime="21.00" waitingCount="2" stopTime="0.00" timeLoss="67.74" rerouteNo="0" devices="tripinfo_10" vType="normal_car" speedFactor="1.03" vaporized=""/>
    <tripinfo id="40" depart="103.00" departLane="E5_0" departPos="5.10" departSpeed="0.00" departDelay="23.00" arrival="152.00" arrivalLane="-E0_0" arrivalPos="100.00" arrivalSpeed="14.09" duration="49.00" routeLength="536.32" waitingTime="0.00" waitingCount="0" stopTime="0.00" timeLoss="11.14" rerouteNo="0" devices="tripinfo_40" vType="normal_car" speedFactor="0.96" vaporized=""/>
    <tripinfo id="27" depart="54.00" departLane="-E2_0" departPos="5.10" departSpeed="0.00" departDelay="0.00" arrival="155.00" arrivalLane="-E8_0" arrivalPos="141.42" arrivalSpeed="11.29" duration="101.00" routeLength="894.31" waitingTime="0.00" waitingCount="0" stopTime="0.00" timeLoss="40.94" rerouteNo="0" devices="tripinfo_27" vType="normal_car" speedFactor="1.13" vaporized=""/>
    <tripinfo id="15" depart="30.00" departLane="E0_0" departPos="5.10" departSpeed="0.00" departDelay="0.00" arrival="158.00" arrivalLane="-E6_0" arrivalPos="310.36" arrivalSpeed="12.78" duration="128.00" routeLength="846.68" waitingTime="12.00" waitingCount="1" stopTime="0.00" timeLoss="63.33" rerouteNo="0" devices="tripinfo_15" vType="normal_car" speedFactor="0.88" vaporized=""/>
    <tripinfo id="19" depart="45.00" departLane="-E1_0" departPos="5.10" departSpeed="0.00" departDelay="7.00" arrival="158.00" arrivalLane="-E7_0" arrivalPos="200.00" arrivalSpeed="10.11" duration="113.00" routeLength="860.34" waitingTime="11.00" waitingCount="1" stopTime="0.00" timeLoss="48.45" rerouteNo="0" devices="tripinfo_19" vType="normal_car" speedFactor="1.02" vaporized=""/>
    <tripinfo id="22" depart="44.00" departLane="-E3_0" departPos="5.10" departSpeed="0.00" departDelay="0.00" arrival="162.00" arrivalLane="E7_0" arrivalPos="200.00" arrivalSpeed="5.15" duration="118.00" routeLength="718.51" waitingTime="41.00" waitingCount="2" stopTime="0.00" timeLoss="56.42" rerouteNo="0" devices="tripinfo_22" vType="normal_car" speedFactor="0.89" vaporized=""/>
    <tripinfo id="39" depart="78.00" departLane="E3_0" departPos="5.10" departSpeed="0.00" departDelay="0.00" arrival="169.00" arrivalLane="-E6_0" arrivalPos="310.36" arrivalSpeed="14.19" duration="91.00" routeLength="746.68" waitingTime="11.00" waitingCount="1" stopTime="0.00" timeLoss="40.60" rerouteNo="0" devices="tripinfo_39" vType="normal_car" speedFactor="1.03" vaporized=""/>
    <tripinfo id="49" depart="98.00" departLane="-E8_0" departPos="5.10" departSpeed="0.00" departDelay="0.00" arrival="172.00" arrivalLane="E4_0" arrivalPos="133.37" arrivalSpeed="11.86" duration="74.00" routeLength="793.71" waitingTime="0.00" waitingCount="0" stopTime="0.00" timeLoss="11.88" rerouteNo="0" devices="tripinfo_49" vType="normal_car" speedFactor="0.85" vaporized=""/>
    <tripinfo id="52" depart="104.00" departLane="-E7_0" departPos="5.10" departSpeed="0.00" departDelay="0.00" arrival="173.00" arrivalLane="-E6_0" arrivalPos="310.36" arrivalSpeed="14.81" duration="69.00" routeLength="788.10" waitingTime="0.00" waitingCount="0" stopTime="0.00" timeLoss="11.18" rerouteNo="0" devices="tripinfo_52" vType="normal_car" speedFactor="1.10" vaporized=""/>
    <tripinfo id="51" depart="104.00" departLane="-E6_0" departPos="5.10" departSpeed="0.00" departDelay="2.00" arrival="175.00" arrivalLane="E1_0" arrivalPos="224.02" arrivalSpeed="13.27" duration="71.00" routeLength="886.26" waitingTime="0.00" waitingCount="0" stopTime="0.00" timeLoss="11.57" rerouteNo="0" devices="tripinfo_51" vType="normal_car" speedFactor="1.02" vaporized=""/>
    <tripinfo id="38" depart="76.00" departLane="E2_0" departPos="5.10" departSpeed="0.00" departDelay="0.00" arrival="177.00" arrivalLane="-E8_0" arrivalPos="141.42" arrivalSpeed="13.42" duration="101.00" routeLength="559.93" waitingTime="33.00" waitingCount="1" stopTime="0.00" timeLoss="51.50" rerouteNo="0" devices="tripinfo_38" vType="normal_car" speedFactor="0.90" vaporized=""/>
    <tripinfo id="35" depart="71.00" departLane="-E6_0" departPos="5.10" departSpeed="0.00" departDelay="1.00" arrival="179.00" arrivalLane="-E8_0" arrivalPos="141.42" arrivalSpeed="14.30" duration="108.00" routeLength="780.05" waitingTime="30.00" waitingCount="1" stopTime="0.00" timeLoss="46.84" rerouteNo="0" devices="tripinfo_35" vType="normal_car" speedFactor="0.97" vaporized=""/>
    <tripinfo id="14" depart="28.00" departLane="E1_0" departPos="5.10" departSpeed="0.00" departDelay="0.00" arrival="183.00" arrivalLane="E2_0" arrivalPos="223.61" arrivalSpeed="6.70" duration="155.00" routeLength="1017.32" waitingTime="0.00" waitingCount="0" stopTime="0.00" timeLoss="81.36" rerouteNo="0" devices="tripinfo_14" vType="normal_car" speedFactor="0.93" vaporized=""/>
    <tripinfo id="76" depart="152.00" departLane="-E9_0" departPos="5.10" departSpeed="0.00" departDelay="0.00" arrival="185.00" arrivalLane="-E7_0" arrivalPos="200.00" arrivalSpeed="9.62" duration="33.00" routeLength="294.90" waitingTime="0.00" waitingCount="0" stopTime="0.00" timeLoss="5.90" rerouteNo="0" devices="tripinfo_76" vType="normal_car" speedFactor="0.98" vaporized=""/>
    <tripinfo id="45" depart="90.00" departLane="E6_0" departPos="5.10" departSpeed="0.00" departDelay="0.00" arrival="190.00" arrivalLane="E1_0" arrivalPos="224.02" arrivalSpeed="14.22" duration="100.00" routeLength="970.70" waitingTime="0.00" waitingCount="0" stopTime="0.00" timeLoss="34.22" rerouteNo="0" devices="tripinfo_45" vType="normal_car" speedFactor="1.00" vaporized=""/>
    <tripinfo id="48" depart="108.00" departLane="-E4_0" departPos="5.10" departSpeed="0.00" departDelay="12.00" arrival="200.00" arrivalLane="-E7_0" arrivalPos="200.00" arrivalSpeed="8.18" duration="92.00" routeLength="638.63" waitingTime="8.00" waitingCount="1" stopTime="0.00" timeLoss="33.24" rerouteNo="0" devices="tripinfo_48" vType="normal_car" speedFactor="0.85" vaporized=""/>
    <tripinfo id="24" depart="61.00" departLane="-E3_0" departPos="8.10" departSpeed="0.00" departDelay="13.00" arrival="203.00" arrivalLane="E5_0" arrivalPos="141.42" arrivalSpeed="4.71" duration="142.00" routeLength="656.93" waitingTime="0.00" waitingCount="0" stopTime="0.00" timeLoss="9.79" rerouteNo="0" devices="tripinfo_24" vType="truck" speedFactor="0.87" vaporized=""/>
    <tripinfo id="66" depart="135.00" departLane="E7_0" departPos="8.10" departSpeed="0.00" departDelay="3.00" arrival="204.00" arrivalLane="E7_0" arrivalPos="200.00" arrivalSpeed="3.06" duration="69.00" routeLength="191.90" waitingTime="22.00" waitingCount="1" stopTime="0.00" timeLoss="30.62" rerouteNo="0" devices="tripinfo_66" vType="truck" speedFactor="0.91" vaporized=""/>
    <tripinfo id="55" depart="110.00" departLane="-E8_0" departPos="5.10" departSpeed="0.00" departDelay="0.00" arrival="208.00" arrivalLane="E7_0" arrivalPos="200.00" arrivalSpeed="6.88" duration="98.00" routeLength="477.74" waitingTime="22.00" waitingCount="1" stopTime="0.00" timeLoss="54.33" rerouteNo="0" devices="tripinfo_55" vType="normal_car" speedFactor="0.90" vaporized=""/>
    <tripinfo id="65" depart="130.00" departLane="E6_0" departPos="5.10" departSpeed="0.00" departDelay="0.00" arrival="209.00" arrivalLane="E1_0" arrivalPos="224.02" arrivalSpeed="13.52" duration="79.00" routeLength="970.70" waitingTime="0.00" waitingCount="0" stopTime="0.00" timeLoss="6.66" rerouteNo="0" devices="tripinfo_65" vType="normal_car" speedFactor="0.91" vaporized=""/>
    <tripinfo id="50" depart="127.00" departLane="E8_0" departPos="5.10" departSpeed="0.00" departDelay="27.00" arrival="213.00" arrivalLane="E1_0" arrivalPos="224.02" arrivalSpeed="14.32" duration="86.00" routeLength="783.95" waitingTime="0.00" waitingCount="0" stopTime="0.00" timeLoss="29.40" rerouteNo="0" devices="tripinfo_50" vType="normal_car" speedFactor="1.17" vaporized=""/>
    <tripinfo id="17" depart="34.00" departLane="E3_0" departPos="8.10" departSpeed="0.00" departDelay="0.00" arrival="214.00" arrivalLane="-E0_0" arrivalPos="100.00" arrivalSpeed="4.66" duration="180.00" routeLength="756.93" waitingTime="14.00" waitingCount="1" stopTime="0.00" timeLoss="28.03" rerouteNo="0" devices="tripinfo_17" vType="truck" speedFactor="0.94" vaporized=""/>
    <tripinfo id="79" depart="158.00" departLane="-E9_0" departPos="5.10" departSpeed="0.00" departDelay="0.00" arrival="219.00" arrivalLane="E5_0" arrivalPos="141.42" arrivalSpeed="9.81" duration="61.00" routeLength="436.32" waitingTime="0.00" waitingCount="0" stopTime="0.00" timeLoss="25.50" rerouteNo="0" devices="tripinfo_79" vType="normal_car" speedFactor="1.03" vaporized=""/>
    <tripinfo id="82" depart="164.00" departLane="E5_0" departPos="5.10" departSpeed="0.00" departDelay="0.00" arrival="221.00" arrivalLane="-E6_0" arrivalPos="310.36" arrivalSpeed="14.30" duration="57.00" routeLength="588.10" waitingTime="0.00" waitingCount="0" stopTime="0.00" timeLoss="15.60" rerouteNo="0" devices="tripinfo_82" vType="normal_car" speedFactor="0.97" vaporized=""/>
    <tripinfo id="80" depart="161.00" departLane="-E9_0" departPos="5.10" departSpeed="0.00" departDelay="1.00" arrival="222.00" arrivalLane="-E0_0" arrivalPos="100.00" arrivalSpeed="14.75" duration="61.00" routeLength="636.32" waitingTime="5.00" waitingCount="1" stopTime="0.00" timeLoss="18.25" rerouteNo="0" devices="tripinfo_80" vType="normal_car" speedFactor="1.00" vaporized=""/>
    <tripinfo id="63" depart="165.00" departLane="-E6_0" departPos="5.10" departSpeed="0.00" departDelay="39.00" arrival="224.00" arrivalLane="E5_0" arrivalPos="141.42" arrivalSpeed="7.40" duration="59.00" routeLength="580.05" waitingTime="0.00" waitingCount="0" stopTime="0.00" timeLoss="17.50" rerouteNo="0" devices="tripinfo_63" vType="normal_car" speedFactor="0.94" vaporized=""/>
    <tripinfo id="86" depart="176.00" departLane="E5_0" departPos="5.10" departSpeed="0.00" departDelay="4.00" arrival="228.00" arrivalLane="E9_0" arrivalPos="100.00" arrivalSpeed="14.97" duration="52.00" routeLength="377.74" waitingTime="0.00" waitingCount="0" stopTime="0.00" timeLoss="26.17" rerouteNo="0" devices="tripinfo_86" vType="normal_car" speedFactor="1.04" vaporized=""/>
    <tripinfo id="72" depart="145.00" departLane="E5_0" departPos="5.10" departSpeed="0.00" departDelay="1.00" arrival="233.00" arrivalLane="E4_0" arrivalPos="133.37" arrivalSpeed="4.94" duration="88.00" routeLength="721.47" waitingTime="6.00" waitingCount="1" stopTime="0.00" timeLoss="39.69" rerouteNo="0" devices="tripinfo_72" vType="normal_car" speedFactor="1.06" vaporized=""/>
    <tripinfo id="64" depart="128.00" departLane="-E3_0" departPos="5.10" departSpeed="0.00" departDelay="0.00" arrival="236.00" arrivalLane="E6_0" arrivalPos="310.36" arrivalSpeed="5.76" duration="108.00" routeLength="829.28" waitingTime="0.00" waitingCount="0" stopTime="0.00" timeLoss="45.21" rerouteNo="0" devices="tripinfo_64" vType="normal_car" speedFactor="0.88" vaporized=""/>
    <tripinfo id="74" depart="148.00" departLane="E6_0" departPos="5.10" departSpeed="0.00" departDelay="0.00" arrival="236.00" arrivalLane="E4_0" arrivalPos="133.37" arrivalSpeed="14.15" duration="88.00" routeLength="1104.07" waitingTime="0.00" waitingCount="0" stopTime="0.00" timeLoss="13.20" rerouteNo="0" devices="tripinfo_74" vType="normal_car" speedFactor="0.98" vaporized=""/>
    <tripinfo id="37" depart="74.00" departLane="-E8_0" departPos="5.10" departSpeed="0.00" departDelay="0.00" arrival="242.00" arrivalLane="E8_0" arrivalPos="141.42" arrivalSpeed="6.31" duration="168.00" routeLength="942.77" waitingTime="0.00" waitingCount="0" stopTime="0.00" timeLoss="104.99" rerouteNo="0" devices="tripinfo_37" vType="normal_car" speedFactor="1.10" vaporized=""/>
    <tripinfo id="56" depart="113.00" departLane="E7_0" departPos="5.10" departSpeed="0.00" departDelay="1.00" arrival="242.00" arrivalLane="E4_0" arrivalPos="133.37" arrivalSpeed="14.57" duration="129.00" routeLength="638.63" waitingTime="57.00" waitingCount="2" stopTime="0.00" timeLoss="82.08" rerouteNo="0" devices="tripinfo_56" vType="normal_car" speedFactor="1.14" vaporized=""/>
    <tripinfo id="88" depart="183.00" departLane="E5_0" departPos="5.10" departSpeed="0.00" departDelay="7.00" arrival="243.00" arrivalLane="-E0_0" arrivalPos="100.00" arrivalSpeed="14.28" duration="60.00" routeLength="536.32" waitingTime="0.00" waitingCount="0" stopTime="0.00" timeLoss="23.66" rerouteNo="0" devices="tripinfo_88" vType="normal_car" speedFactor="1.02" vaporized=""/>
    <tripinfo id="60" depart="120.00" departLane="E5_0" departPos="5.10" departSpeed="0.00" departDelay="0.00" arrival="244.00" arrivalLane="-E1_0" arrivalPos="224.02" arrivalSpeed="6.62" duration="124.00" routeLength="812.12" waitingTime="51.00" waitingCount="1" stopTime="0.00" timeLoss="69.81" rerouteNo="0" devices="tripinfo_60" vType="normal_car" speedFactor="1.12" vaporized=""/>
    <tripinfo id="61" depart="145.00" departLane="E8_0" departPos="5.10" departSpeed="0.00" departDelay="23.00" arrival="250.00" arrivalLane="-E7_0" arrivalPos="200.00" arrivalSpeed="4.94" duration="105.00" routeLength="336.32" waitingTime="25.00" waitingCount="2" stopTime="0.00" timeLoss="76.00" rerouteNo="0" devices="tripinfo_61" vType="normal_car" speedFactor="1.02" vaporized=""/>
    <tripinfo id="83" depart="166.00" departLane="-E2_0" departPos="5.10" departSpeed="0.00" departDelay="0.00" arrival="250.00" arrivalLane="E7_0" arrivalPos="200.00" arrivalSpeed="10.91" duration="84.00" routeLength="775.90" waitingTime="1.00" waitingCount="1" stopTime="0.00" timeLoss="27.50" rerouteNo="0" devices="tripinfo_83" vType="normal_car" speedFactor="1.15" vaporized=""/>
    <tripinfo id="68" depart="138.00" departLane="E6_0" departPos="5.10" departSpeed="0.00" departDelay="2.00" arrival="251.00" arrivalLane="E8_0" arrivalPos="141.42" arrivalSpeed="10.98" duration="113.00" routeLength="788.10" waitingTime="11.00" waitingCount="2" stopTime="0.00" timeLoss="53.64" rerouteNo="0" devices="tripinfo_68" vType="normal_car" speedFactor="1.02" vaporized=""/>
    <tripinfo id="105" depart="210.00" departLane="E0_0" departPos="5.10" departSpeed="0.00" departDelay="0.00" arrival="251.00" arrivalLane="E2_0" arrivalPos="223.61" arrivalSpeed="6.00" duration="41.00" routeLength="318.51" waitingTime="1.00" waitingCount="1" stopTime="0.00" timeLoss="19.51" rerouteNo="0" devices="tripinfo_105" vType="normal_car" speedFactor="1.01" vaporized=""/>
    <tripinfo id="67" depart="135.00" departLane="-E3_0" departPos="5.10" departSpeed="0.00" departDelay="1.00" arrival="253.00" arrivalLane="E9_0" arrivalPos="100.00" arrivalSpeed="14.39" duration="118.00" routeLength="901.35" waitingTime="0.00" waitingCount="0" stopTime="0.00" timeLoss="57.83" rerouteNo="0" devices="tripinfo_67" vType="normal_car" speedFactor="1.04" vaporized=""/>
    <tripinfo id="92" depart="184.00" departLane="E4_0" departPos="5.10" departSpeed="0.00" departDelay="0.00" arrival="255.00" arrivalLane="E9_0" arrivalPos="100.00" arrivalSpeed="13.35" duration="71.00" routeLength="511.11" waitingTime="0.00" waitingCount="0" stopTime="0.00" timeLoss="33.99" rerouteNo="0" devices="tripinfo_92" vType="normal_car" speedFactor="0.92" vaporized=""/>
    <tripinfo id="95" depart="190.00" departLane="E0_0" departPos="8.10" departSpeed="0.00" departDelay="0.00" arrival="266.00" arrivalLane="E1_0" arrivalPos="224.02" arrivalSpeed="4.90" duration="76.00" routeLength="315.92" waitingTime="3.00" waitingCount="1" stopTime="0.00" timeLoss="12.09" rerouteNo="0" devices="tripinfo_95" vType="truck" speedFactor="1.01" vaporized=""/>
    <tripinfo id="106" depart="212.00" departLane="-E5_0" departPos="5.10" departSpeed="0.00" departDelay="0.00" arrival="272.00" arrivalLane="-E8_0" arrivalPos="141.42" arrivalSpeed="7.26" duration="60.00" routeLength="477.74" waitingTime="0.00" waitingCount="0" stopTime="0.00" timeLoss="21.59" rerouteNo="0" devices="tripinfo_106" vType="normal_car" speedFactor="1.03" vaporized=""/>
    <tripinfo id="84" depart="169.00" departLane="-E2_0" departPos="5.10" departSpeed="0.00" departDelay="1.00" arrival="274.00" arrivalLane="E3_0" arrivalPos="300.00" arrivalSpeed="6.08" duration="105.00" routeLength="518.51" waitingTime="32.00" waitingCount="1" stopTime="0.00" timeLoss="69.57" rerouteNo="0" devices="tripinfo_84" vType="normal_car" speedFactor="0.98" vaporized=""/>
    <tripinfo id="77" depart="204.00" departLane="-E6_0" departPos="5.10" departSpeed="0.00" departDelay="50.00" arrival="276.00" arrivalLane="-E3_0" arrivalPos="300.00" arrivalSpeed="14.73" duration="72.00" routeLength="880.05" waitingTime="0.00" waitingCount="0" stopTime="0.00" timeLoss="13.15" rerouteNo="0" devices="tripinfo_77" vType="normal_car" speedFactor="1.01" vaporized=""/>
    <tripinfo id="62" depart="133.00" departLane="-E5_0" departPos="5.10" departSpeed="0.00" departDelay="9.00" arrival="279.00" arrivalLane="-E6_0" arrivalPos="310.36" arrivalSpeed="6.14" duration="146.00" routeLength="646.68" waitingTime="21.00" waitingCount="1" stopTime="0.00" timeLoss="95.29" rerouteNo="0" devices="tripinfo_62" vType="normal_car" speedFactor="0.99" vaporized=""/>
    <tripinfo id="31" depart="62.00" departLane="E6_0" departPos="5.10" departSpeed="0.00" departDelay="0.00" arrival="281.00" arrivalLane="-E6_0" arrivalPos="310.36" arrivalSpeed="7.43" duration="219.00" routeLength="1098.46" waitingTime="21.00" waitingCount="1" stopTime="0.00" timeLoss="139.26" rerouteNo="0" devices="tripinfo_31" vType="normal_car" speedFactor="1.01" vaporized=""/>